 argument  1 = C4H4.nw



============================== echo of input deck ==============================
start C4H4_3
echo

geometry units atomic
C       -0.470071114      0.865306293      0.000000000
C       -0.900608310     -0.464738198      0.000000000
C        0.891200253      0.546541422      0.000000000
C        0.542594856     -0.928872900      0.000000000
H       -1.001768262      1.807351373      0.000000000
H        1.811438865      1.112331381      0.000000000
H        1.073342496     -1.869243594      0.000000000
H       -1.860502862     -0.960285439      0.000000000
end

basis "ao basis" SPHERICAL
H    S
      3.42525091             0.15432897
      0.62391373             0.53532814
      0.16885540             0.44463454
C    S
     71.6168370              0.15432897
     13.0450960              0.53532814
      3.5305122              0.44463454
C    SP
      2.9412494             -0.09996723             0.15591627
      0.6834831              0.39951283             0.60768372
      0.2222899              0.70011547             0.39195739
end

scf
  rhf
  singlet
end

task scf
================================================================================


                                         
                                         


              Northwest Computational Chemistry Package (NWChem) 6.6
              ------------------------------------------------------


                    Environmental Molecular Sciences Laboratory
                       Pacific Northwest National Laboratory
                                Richland, WA 99352

                              Copyright (c) 1994-2015
                       Pacific Northwest National Laboratory
                            Battelle Memorial Institute

             NWChem is an open-source computational chemistry package
                        distributed under the terms of the
                      Educational Community License (ECL) 2.0
             A copy of the license is included with this distribution
                              in the LICENSE.TXT file

                                  ACKNOWLEDGMENT
                                  --------------

            This software and its documentation were developed at the
            EMSL at Pacific Northwest National Laboratory, a multiprogram
            national laboratory, operated for the U.S. Department of Energy
            by Battelle under Contract Number DE-AC05-76RL01830. Support
            for this work was provided by the Department of Energy Office
            of Biological and Environmental Research, Office of Basic
            Energy Sciences, and the Office of Advanced Scientific Computing.


           Job information
           ---------------

    hostname        = avo
    program         = nwchem
    date            = Sat Mar 12 23:25:40 2016

    compiled        = Пт_ноя_20_00:03:40_2015
    source          = /opt/nwchem/nwchem-6.6
    nwchem branch   = 6.6
    nwchem revision = 27746
    ga revision     = 10594
    input           = C4H4.nw
    prefix          = C4H4_3.
    data base       = ./C4H4_3.db
    status          = startup
    nproc           =        1
    time left       =     -1s



           Memory information
           ------------------

    heap     =   46991804 doubles =    358.5 Mbytes
    stack    =   46991809 doubles =    358.5 Mbytes
    global   =   93983616 doubles =    717.0 Mbytes (distinct from heap & stack)
    total    =  187967229 doubles =   1434.1 Mbytes
    verify   = yes
    hardfail = no 


           Directory information
           ---------------------

  0 permanent = .
  0 scratch   = .




                                NWChem Input Module
                                -------------------


 C2V symmetry detected

          ------
          auto-z
          ------
  autoz: excessive number of variables                   322                   18

 AUTOZ failed to generate good internal coordinates.
 Cartesian coordinates will be used in optimizations.



                             Geometry "geometry" -> ""
                             -------------------------

 Output coordinates in a.u. (scale by  1.000000000 to convert to a.u.)

  No.       Tag          Charge          X              Y              Z
 ---- ---------------- ---------- -------------- -------------- --------------
    1 C                    6.0000     0.00000000     0.00000000     0.98545047
    2 C                    6.0000     0.00000000    -1.02874422     0.03876755
    3 C                    6.0000     0.00000000     1.02874422     0.03876755
    4 C                    6.0000     0.00000000     0.00000000    -1.07478394
    5 H                    1.0000     0.00000000     0.00000000     2.06718484
    6 H                    1.0000     0.00000000     2.10825012     0.07909938
    7 H                    1.0000     0.00000000     0.00000000    -2.15459344
    8 H                    1.0000     0.00000000    -2.10825012     0.07909938

      Atomic Mass 
      ----------- 

      C                 12.000000
      H                  1.007825


 Effective nuclear repulsion energy (a.u.)     186.0882583505

            Nuclear Dipole moment (a.u.) 
            ----------------------------
        X                 Y               Z
 ---------------- ---------------- ----------------
     0.0000000000     0.0000000000     0.0000000000

      Symmetry information
      --------------------

 Group name             C2v       
 Group number             16
 Group order               4
 No. of unique centers     6

      Symmetry unique atoms

     1    2    4    5    6    7


            XYZ format geometry
            -------------------
     8
 geometry
 C                     0.00000000     0.00000000     0.52147797
 C                     0.00000000    -0.54438804     0.02051491
 C                     0.00000000     0.54438804     0.02051491
 C                     0.00000000     0.00000000    -0.56875121
 H                     0.00000000     0.00000000     1.09390719
 H                     0.00000000     1.11563800     0.04185759
 H                     0.00000000     0.00000000    -1.14016183
 H                     0.00000000    -1.11563800     0.04185759

 ==============================================================================
                                internuclear distances
 ------------------------------------------------------------------------------
       center one      |      center two      | atomic units |       a.u.
 ------------------------------------------------------------------------------
    2 C                |   1 C                |     1.39804  |     1.39804
    3 C                |   1 C                |     1.39804  |     1.39804
    3 C                |   2 C                |     2.05749  |     2.05749
    4 C                |   1 C                |     2.06023  |     2.06023
    4 C                |   2 C                |     1.51602  |     1.51602
    4 C                |   3 C                |     1.51602  |     1.51602
    5 H                |   1 C                |     1.08173  |     1.08173
    6 H                |   3 C                |     1.08026  |     1.08026
    7 H                |   4 C                |     1.07981  |     1.07981
    8 H                |   2 C                |     1.08026  |     1.08026
 ------------------------------------------------------------------------------
                         number of included internuclear distances:         10
 ==============================================================================



 ==============================================================================
                                 internuclear angles
 ------------------------------------------------------------------------------
        center 1       |       center 2       |       center 3       |  degrees
 ------------------------------------------------------------------------------
    2 C                |   1 C                |   3 C                |    94.76
    1 C                |   2 C                |   4 C                |    89.89
    2 C                |   1 C                |   5 H                |   132.62
    1 C                |   3 C                |   4 C                |    89.89
    3 C                |   1 C                |   5 H                |   132.62
    4 C                |   1 C                |   5 H                |   180.00
    2 C                |   1 C                |   3 C                |    94.76
    1 C                |   2 C                |   4 C                |    89.89
    1 C                |   2 C                |   8 H                |   135.24
    2 C                |   4 C                |   3 C                |    85.47
    3 C                |   2 C                |   8 H                |   177.86
    4 C                |   2 C                |   8 H                |   134.87
    3 C                |   1 C                |   2 C                |    94.76
    1 C                |   3 C                |   4 C                |    89.89
    1 C                |   3 C                |   6 H                |   135.24
    3 C                |   4 C                |   2 C                |    85.47
    2 C                |   3 C                |   6 H                |   177.86
    4 C                |   3 C                |   6 H                |   134.87
    4 C                |   2 C                |   1 C                |    89.89
    4 C                |   3 C                |   1 C                |    89.89
    1 C                |   4 C                |   7 H                |   180.00
    2 C                |   4 C                |   3 C                |    85.47
    2 C                |   4 C                |   7 H                |   137.27
    3 C                |   4 C                |   7 H                |   137.27
 ------------------------------------------------------------------------------
                            number of included internuclear angles:         24
 ==============================================================================



                      Basis "ao basis" -> "" (spherical)
                      -----
  H (Hydrogen)
  ------------
            Exponent  Coefficients 
       -------------- ---------------------------------------------------------
  1 S  3.42525091E+00  0.154329
  1 S  6.23913730E-01  0.535328
  1 S  1.68855400E-01  0.444635

  C (Carbon)
  ----------
            Exponent  Coefficients 
       -------------- ---------------------------------------------------------
  1 S  7.16168370E+01  0.154329
  1 S  1.30450960E+01  0.535328
  1 S  3.53051220E+00  0.444635

  2 S  2.94124940E+00 -0.099967
  2 S  6.83483100E-01  0.399513
  2 S  2.22289900E-01  0.700115

  3 P  2.94124940E+00  0.155916
  3 P  6.83483100E-01  0.607684
  3 P  2.22289900E-01  0.391957



 Summary of "ao basis" -> "" (spherical)
 ------------------------------------------------------------------------------
       Tag                 Description            Shells   Functions and Types
 ---------------- ------------------------------  ------  ---------------------
 H                       user specified              1        1   1s
 C                       user specified              3        5   2s1p


                                 NWChem SCF Module
                                 -----------------



  ao basis        = "ao basis"
  functions       =    24
  atoms           =     8
  closed shells   =    14
  open shells     =     0
  charge          =   0.00
  wavefunction    = RHF 
  input vectors   = atomic
  output vectors  = ./C4H4_3.movecs
  use symmetry    = T
  symmetry adapt  = T


 Summary of "ao basis" -> "ao basis" (spherical)
 ------------------------------------------------------------------------------
       Tag                 Description            Shells   Functions and Types
 ---------------- ------------------------------  ------  ---------------------
 H                       user specified              1        1   1s
 C                       user specified              3        5   2s1p


      Symmetry analysis of basis
      --------------------------

        a1         13
        a2          1
        b1          3
        b2          7


 Forming initial guess at       0.0s


      Superposition of Atomic Density Guess
      -------------------------------------

 Sum of atomic energies:        -150.57930070

      Non-variational initial energy
      ------------------------------

 Total energy =    -162.711858
 1-e energy   =    -553.145394
 2-e energy   =     204.345277
 HOMO         =      -0.210042
 LUMO         =      -0.208140


      Symmetry analysis of molecular orbitals - initial
      -------------------------------------------------

  Numbering of irreducible representations: 

     1 a1          2 a2          3 b1          4 b2      

  Orbital symmetries:

     1 a1          2 b2          3 a1          4 a1          5 a1      
     6 a1          7 b2          8 a1          9 b1         10 b2      
    11 a1         12 b2         13 a1         14 a2         15 b1      
    16 b1         17 a1         18 b2         19 a1         20 b2      
    21 a1         22 b2         23 a1         24 a1      


 Starting SCF solution at       0.1s



 ----------------------------------------------
         Quadratically convergent ROHF

 Convergence threshold     :          1.000E-04
 Maximum no. of iterations :           30
 Final Fock-matrix accuracy:          1.000E-07
 ----------------------------------------------


 #quartets = 5.326D+03 #integrals = 1.558D+04 #direct =  0.0% #cached =100.0%


 Integral file          = ./C4H4_3.aoints.0
 Record size in doubles =  65536        No. of integs per rec  =  43688
 Max. records in memory =      2        Max. records in file   = 712546
 No. of bits per label  =      8        No. of bits per value  =     64


              iter       energy          gnorm     gmax       time
             ----- ------------------- --------- --------- --------
                 1     -142.2588274646  7.42D-01  3.62D-01      0.5
                 2     -142.2830768389  8.96D-02  3.32D-02      0.5
                 3     -142.2834801694  1.19D-03  5.67D-04      0.6
                 4     -142.2834802648  2.85D-06  1.40D-06      0.6


       Final RHF  results 
       ------------------ 

         Total SCF energy =   -142.283480264773
      One-electron energy =   -542.079169702972
      Two-electron energy =    213.707431087728
 Nuclear repulsion energy =    186.088258350470

        Time for solution =      0.1s



       Symmetry analysis of molecular orbitals - final
       -----------------------------------------------

  Numbering of irreducible representations: 

     1 a1          2 a2          3 b1          4 b2      

  Orbital symmetries:

     1 a1          2 a1          3 b2          4 a1          5 a1      
     6 a1          7 b1          8 a1          9 b2         10 b2      
    11 a1         12 a1         13 b2         14 a2         15 b1      
    16 b1         17 a1         18 b2         19 a1         20 a1      
    21 b2         22 b2         23 a1         24 a1      

             Final eigenvalues
             -----------------

              1      
    1  -11.9004
    2  -11.7771
    3  -11.5844
    4  -11.5458
    5   -2.1410
    6   -1.2478
    7   -1.2114
    8   -1.2105
    9   -1.1912
   10   -1.0296
   11   -0.8202
   12   -0.6475
   13   -0.6047
   14   -0.4204
   15   -0.0545
   16    0.8602
   17    1.1045
   18    1.6983
   19    1.8241
   20    2.0025
   21    2.1256
   22    2.1825
   23    2.5408
   24    5.0466

                       ROHF Final Molecular Orbital Analysis
                       -------------------------------------

 Vector    5  Occ=2.000000D+00  E=-2.141003D+00  Symmetry=a1
              MO Center= -1.8D-17,  5.5D-17, -2.2D-02, r^2= 3.3D-01
   Bfn.  Coefficient  Atom+Function         Bfn.  Coefficient  Atom+Function  
  ----- ------------  ---------------      ----- ------------  ---------------
     5      0.417372  1 C  pz                20     -0.415196  4 C  pz         
     9     -0.391362  2 C  py                14      0.391362  3 C  py         
     1      0.244291  1 C  s                  6      0.244701  2 C  s          
    11      0.244701  3 C  s                 16      0.234048  4 C  s          
    21     -0.216191  5 H  s                 22     -0.211193  6 H  s          

 Vector    6  Occ=2.000000D+00  E=-1.247829D+00  Symmetry=a1
              MO Center=  3.0D-16, -3.9D-16,  6.4D-01, r^2= 1.1D+00
   Bfn.  Coefficient  Atom+Function         Bfn.  Coefficient  Atom+Function  
  ----- ------------  ---------------      ----- ------------  ---------------
     5      0.387287  1 C  pz                 2      0.292279  1 C  s          
     7      0.289709  2 C  s                 12      0.289709  3 C  s          
    20     -0.228405  4 C  pz                 9     -0.190542  2 C  py         
    14      0.190542  3 C  py                17      0.179437  4 C  s          
     1     -0.169346  1 C  s                 10      0.163481  2 C  pz         

 Vector    7  Occ=2.000000D+00  E=-1.211440D+00  Symmetry=b1
              MO Center= -2.7D-15, -3.0D-17,  3.3D-02, r^2= 9.8D-01
   Bfn.  Coefficient  Atom+Function         Bfn.  Coefficient  Atom+Function  
  ----- ------------  ---------------      ----- ------------  ---------------
     3      0.336644  1 C  px                 8      0.320135  2 C  px         
    13      0.320135  3 C  px                18      0.282173  4 C  px         

 Vector    8  Occ=2.000000D+00  E=-1.210521D+00  Symmetry=a1
              MO Center=  2.2D-15,  1.3D-16, -6.7D-01, r^2= 1.0D+00
   Bfn.  Coefficient  Atom+Function         Bfn.  Coefficient  Atom+Function  
  ----- ------------  ---------------      ----- ------------  ---------------
    20      0.302370  4 C  pz                10      0.287158  2 C  pz         
    15      0.287158  3 C  pz                17     -0.273482  4 C  s          
    23     -0.229921  7 H  s                 16      0.215501  4 C  s          
     1     -0.159361  1 C  s          

 Vector    9  Occ=2.000000D+00  E=-1.191244D+00  Symmetry=b2
              MO Center= -6.0D-21,  1.1D-15,  5.4D-02, r^2= 1.2D+00
   Bfn.  Coefficient  Atom+Function         Bfn.  Coefficient  Atom+Function  
  ----- ------------  ---------------      ----- ------------  ---------------
     4      0.482847  1 C  py                19      0.406264  4 C  py         
     6      0.228149  2 C  s                 11     -0.228149  3 C  s          
    22      0.176016  6 H  s                 24     -0.176016  8 H  s          

 Vector   10  Occ=2.000000D+00  E=-1.029628D+00  Symmetry=b2
              MO Center= -1.1D-33, -5.9D-16, -3.9D-02, r^2= 1.1D+00
   Bfn.  Coefficient  Atom+Function         Bfn.  Coefficient  Atom+Function  
  ----- ------------  ---------------      ----- ------------  ---------------
     4      0.515790  1 C  py                19     -0.489662  4 C  py         
    10     -0.406705  2 C  pz                15      0.406705  3 C  pz         

 Vector   11  Occ=2.000000D+00  E=-8.201588D-01  Symmetry=a1
              MO Center=  9.7D-17,  4.2D-16, -1.5D-01, r^2= 1.6D+00
   Bfn.  Coefficient  Atom+Function         Bfn.  Coefficient  Atom+Function  
  ----- ------------  ---------------      ----- ------------  ---------------
    20     -0.438453  4 C  pz                 9      0.403160  2 C  py         
    14     -0.403160  3 C  py                23      0.320007  7 H  s          
    21      0.280530  5 H  s                 22     -0.266522  6 H  s          
    24     -0.266522  8 H  s          

 Vector   12  Occ=2.000000D+00  E=-6.474719D-01  Symmetry=a1
              MO Center=  1.6D-17, -7.8D-18,  1.8D-01, r^2= 1.0D+00
   Bfn.  Coefficient  Atom+Function         Bfn.  Coefficient  Atom+Function  
  ----- ------------  ---------------      ----- ------------  ---------------
     5      0.938081  1 C  pz                20      0.778257  4 C  pz         
    10     -0.545170  2 C  pz                15     -0.545170  3 C  pz         
    17      0.375057  4 C  s                  2     -0.315873  1 C  s          
    21      0.258518  5 H  s                 23     -0.156427  7 H  s          

 Vector   13  Occ=2.000000D+00  E=-6.046703D-01  Symmetry=b2
              MO Center= -9.4D-21, -4.0D-16,  1.1D-02, r^2= 1.2D+00
   Bfn.  Coefficient  Atom+Function         Bfn.  Coefficient  Atom+Function  
  ----- ------------  ---------------      ----- ------------  ---------------
     9      0.832226  2 C  py                14      0.832226  3 C  py         
     4     -0.571764  1 C  py                19     -0.529060  4 C  py         
    22      0.222543  6 H  s                 24     -0.222543  8 H  s          

 Vector   14  Occ=2.000000D+00  E=-4.204291D-01  Symmetry=a2
              MO Center=  1.7D-18,  4.2D-18,  2.1D-02, r^2= 1.0D+00
   Bfn.  Coefficient  Atom+Function         Bfn.  Coefficient  Atom+Function  
  ----- ------------  ---------------      ----- ------------  ---------------
     8      0.886094  2 C  px                13     -0.886094  3 C  px         

 Vector   15  Occ=0.000000D+00  E=-5.449677D-02  Symmetry=b1
              MO Center=  3.6D-17, -6.9D-20, -9.5D-02, r^2= 1.0D+00
   Bfn.  Coefficient  Atom+Function         Bfn.  Coefficient  Atom+Function  
  ----- ------------  ---------------      ----- ------------  ---------------
    18     -0.922436  4 C  px                 3      0.844972  1 C  px         

 Vector   16  Occ=0.000000D+00  E= 8.601917D-01  Symmetry=b1
              MO Center=  1.1D-17,  1.0D-32,  3.5D-02, r^2= 1.0D+00
   Bfn.  Coefficient  Atom+Function         Bfn.  Coefficient  Atom+Function  
  ----- ------------  ---------------      ----- ------------  ---------------
     3      1.195728  1 C  px                 8     -1.097564  2 C  px         
    13     -1.097564  3 C  px                18      1.001971  4 C  px         

 Vector   17  Occ=0.000000D+00  E= 1.104474D+00  Symmetry=a1
              MO Center=  9.9D-17, -8.3D-16,  4.0D-02, r^2= 2.0D+00
   Bfn.  Coefficient  Atom+Function         Bfn.  Coefficient  Atom+Function  
  ----- ------------  ---------------      ----- ------------  ---------------
    21      1.558787  5 H  s                 23      1.491865  7 H  s          
    17     -1.413338  4 C  s                 22      1.374053  6 H  s          
    24      1.374053  8 H  s                  2     -1.126725  1 C  s          
     7     -1.082290  2 C  s                 12     -1.082290  3 C  s          
     5     -0.750298  1 C  pz                20      0.618953  4 C  pz         

 Vector   18  Occ=0.000000D+00  E= 1.698310D+00  Symmetry=b2
              MO Center= -5.9D-32, -2.1D-15, -3.5D-01, r^2= 8.2D-01
   Bfn.  Coefficient  Atom+Function         Bfn.  Coefficient  Atom+Function  
  ----- ------------  ---------------      ----- ------------  ---------------
     7      3.959519  2 C  s                 12     -3.959519  3 C  s          
    19      2.300982  4 C  py                 9      1.019350  2 C  py         
    14      1.019350  3 C  py                10     -0.964057  2 C  pz         
    15      0.964057  3 C  pz                 4      0.496041  1 C  py         
    22      0.498329  6 H  s                 24     -0.498329  8 H  s          

 Vector   19  Occ=0.000000D+00  E= 1.824138D+00  Symmetry=a1
              MO Center= -1.2D-17, -1.7D-15, -1.1D-01, r^2= 9.8D-01
   Bfn.  Coefficient  Atom+Function         Bfn.  Coefficient  Atom+Function  
  ----- ------------  ---------------      ----- ------------  ---------------
    17      5.341164  4 C  s                  2     -4.414551  1 C  s          
    10      1.747089  2 C  pz                15      1.747089  3 C  pz         
    20      1.281996  4 C  pz                 5      0.967491  1 C  pz         
    23     -0.839352  7 H  s                  7     -0.602936  2 C  s          
    12     -0.602936  3 C  s                 21      0.572291  5 H  s          

 Vector   20  Occ=0.000000D+00  E= 2.002510D+00  Symmetry=a1
              MO Center=  5.0D-19,  1.5D-18, -1.7D-01, r^2= 1.6D+00
   Bfn.  Coefficient  Atom+Function         Bfn.  Coefficient  Atom+Function  
  ----- ------------  ---------------      ----- ------------  ---------------
    23      2.637423  7 H  s                 20      2.343834  4 C  pz         
    21     -2.256655  5 H  s                  5      2.079852  1 C  pz         
    17     -0.675282  4 C  s                  2      0.383296  1 C  s          

 Vector   21  Occ=0.000000D+00  E= 2.125551D+00  Symmetry=b2
              MO Center= -4.9D-32,  0.0D+00,  9.6D-02, r^2= 1.6D+00
   Bfn.  Coefficient  Atom+Function         Bfn.  Coefficient  Atom+Function  
  ----- ------------  ---------------      ----- ------------  ---------------
    22      2.445254  6 H  s                 24     -2.445254  8 H  s          
     7      2.008758  2 C  s                 12     -2.008758  3 C  s          
     9     -1.665506  2 C  py                14     -1.665506  3 C  py         
     4      1.095734  1 C  py                10      0.738857  2 C  pz         
    15     -0.738857  3 C  pz                19     -0.276055  4 C  py         

 Vector   22  Occ=0.000000D+00  E= 2.182530D+00  Symmetry=b2
              MO Center=  2.5D-31, -2.4D-15,  2.6D-01, r^2= 8.5D-01
   Bfn.  Coefficient  Atom+Function         Bfn.  Coefficient  Atom+Function  
  ----- ------------  ---------------      ----- ------------  ---------------
     4      2.714278  1 C  py                 7      2.705805  2 C  s          
    12     -2.705805  3 C  s                  9      1.614384  2 C  py         
    14      1.614384  3 C  py                10      1.585073  2 C  pz         
    15     -1.585073  3 C  pz                22     -0.623266  6 H  s          
    24      0.623266  8 H  s                 19     -0.558205  4 C  py         

 Vector   23  Occ=0.000000D+00  E= 2.540770D+00  Symmetry=a1
              MO Center=  9.0D-19,  2.3D-15,  1.9D-01, r^2= 1.6D+00
   Bfn.  Coefficient  Atom+Function         Bfn.  Coefficient  Atom+Function  
  ----- ------------  ---------------      ----- ------------  ---------------
     2      3.488056  1 C  s                  7     -2.571125  2 C  s          
    12     -2.571125  3 C  s                 21     -2.210023  5 H  s          
    22      1.977815  6 H  s                 24      1.977815  8 H  s          
    23     -1.531031  7 H  s                 17      1.474498  4 C  s          
     5      1.007498  1 C  pz                 9      1.000791  2 C  py         

 Vector   24  Occ=0.000000D+00  E= 5.046641D+00  Symmetry=a1
              MO Center= -5.6D-18,  5.7D-15,  9.2D-02, r^2= 8.8D-01
   Bfn.  Coefficient  Atom+Function         Bfn.  Coefficient  Atom+Function  
  ----- ------------  ---------------      ----- ------------  ---------------
     2      9.918989  1 C  s                  7     -8.394199  2 C  s          
    12     -8.394199  3 C  s                 17      6.907133  4 C  s          
     5     -3.221241  1 C  pz                 9     -2.957539  2 C  py         
    14      2.957539  3 C  py                20      2.605214  4 C  pz         
     1      0.444759  1 C  s                  6     -0.355878  2 C  s          


 center of mass
 --------------
 x =   0.00000000 y =   0.00000000 z =  -0.00134988

 moments of inertia (a.u.)
 ------------------
          68.907703593729           0.000000000000           0.000000000000
           0.000000000000          34.549154461469           0.000000000000
           0.000000000000           0.000000000000          34.358549132260

  Mulliken analysis of the total density
  --------------------------------------

    Atom       Charge   Shell Charges
 -----------   ------   -------------------------------------------------------
    1 C    6     5.99   2.00  0.36  3.63
    2 C    6     6.68   2.00  0.37  4.31
    3 C    6     6.68   2.00  0.37  4.31
    4 C    6     5.85   2.00  0.45  3.41
    5 H    1     0.68   0.68
    6 H    1     0.69   0.69
    7 H    1     0.73   0.73
    8 H    1     0.69   0.69

       Multipole analysis of the density wrt the origin
       ------------------------------------------------

     L   x y z        total         open         nuclear
     -   - - -        -----         ----         -------
     0   0 0 0     -0.000000      0.000000     28.000000

     1   1 0 0      0.000000      0.000000      0.000000
     1   0 1 0      0.000000      0.000000      0.000000
     1   0 0 1     -0.150751      0.000000      0.000000

     2   2 0 0    -14.926880      0.000000      0.000000
     2   1 1 0     -0.000000      0.000000      0.000000
     2   1 0 1     -0.000000      0.000000      0.000000
     2   0 2 0    -18.162649      0.000000     21.589213
     2   0 1 1     -0.000000      0.000000      0.000000
     2   0 0 2    -15.422888      0.000000     21.703713


 Parallel integral file used       1 records with       0 large values


 Task  times  cpu:        0.2s     wall:        0.1s
 Summary of allocated global arrays
-----------------------------------
  No active global arrays



                         GA Statistics for process    0
                         ------------------------------

       create   destroy   get      put      acc     scatter   gather  read&inc
calls:  265      265     5591     1941     4885        0        0     1162     
number of processes/call 1.00e+00 1.00e+00 1.00e+00 0.00e+00 0.00e+00
bytes total:             1.67e+06 9.48e+05 5.39e+05 0.00e+00 0.00e+00 9.30e+03
bytes remote:            0.00e+00 0.00e+00 0.00e+00 0.00e+00 0.00e+00 0.00e+00
Max memory consumed for GA by this process: 68352 bytes
MA_summarize_allocated_blocks: starting scan ...
MA_summarize_allocated_blocks: scan completed: 0 heap blocks, 0 stack blocks
MA usage statistics:

	allocation statistics:
					      heap	     stack
					      ----	     -----
	current number of blocks	         0	         0
	maximum number of blocks	        18	        14
	current total bytes		         0	         0
	maximum total bytes		   1060752	  22509736
	maximum total K-bytes		      1061	     22510
	maximum total M-bytes		         2	        23


                                NWChem Input Module
                                -------------------





                                     CITATION
                                     --------
                Please cite the following reference when publishing
                           results obtained with NWChem:

                 M. Valiev, E.J. Bylaska, N. Govind, K. Kowalski,
              T.P. Straatsma, H.J.J. van Dam, D. Wang, J. Nieplocha,
                        E. Apra, T.L. Windus, W.A. de Jong
                 "NWChem: a comprehensive and scalable open-source
                  solution for large scale molecular simulations"
                      Comput. Phys. Commun. 181, 1477 (2010)
                           doi:10.1016/j.cpc.2010.04.018

                                      AUTHORS
                                      -------
          E. Apra, E. J. Bylaska, W. A. de Jong, N. Govind, K. Kowalski,
       T. P. Straatsma, M. Valiev, H. J. J. van Dam, D. Wang, T. L. Windus,
        J. Hammond, J. Autschbach, K. Bhaskaran-Nair, J. Brabec, K. Lopata,
       S. A. Fischer, S. Krishnamoorthy, W. Ma, M. Klemm, O. Villa, Y. Chen,
    V. Anisimov, F. Aquino, S. Hirata, M. T. Hackler, T. Risthaus, M. Malagoli,
       A. Marenich, A. Otero-de-la-Roza, J. Mullin, P. Nichols, R. Peverati,
     J. Pittner, Y. Zhao, P.-D. Fan, A. Fonari, M. Williamson, R. J. Harrison,
       J. R. Rehr, M. Dupuis, D. Silverstein, D. M. A. Smith, J. Nieplocha,
        V. Tipparaju, M. Krishnan, B. E. Van Kuiken, A. Vazquez-Mayagoitia,
        L. Jensen, M. Swart, Q. Wu, T. Van Voorhis, A. A. Auer, M. Nooijen,
      L. D. Crosby, E. Brown, G. Cisneros, G. I. Fann, H. Fruchtl, J. Garza,
        K. Hirao, R. A. Kendall, J. A. Nichols, K. Tsemekhman, K. Wolinski,
     J. Anchell, D. E. Bernholdt, P. Borowski, T. Clark, D. Clerc, H. Dachsel,
   M. J. O. Deegan, K. Dyall, D. Elwood, E. Glendening, M. Gutowski, A. C. Hess,
         J. Jaffe, B. G. Johnson, J. Ju, R. Kobayashi, R. Kutteh, Z. Lin,
   R. Littlefield, X. Long, B. Meng, T. Nakajima, S. Niu, L. Pollack, M. Rosing,
   K. Glaesemann, G. Sandrone, M. Stave, H. Taylor, G. Thomas, J. H. van Lenthe,
                               A. T. Wong, Z. Zhang.

 Total times  cpu:        0.2s     wall:        0.1s
