 argument  1 = C4H4.nw



============================== echo of input deck ==============================
start C4H4_3
echo

geometry units atomic noautosym
C       -0.470071114      0.865306293      0.000000000
C       -0.900608310     -0.464738198      0.000000000
C        0.891200253      0.546541422      0.000000000
C        0.542594856     -0.928872900      0.000000000
H       -1.001768262      1.807351373      0.000000000
H        1.811438865      1.112331381      0.000000000
H        1.073342496     -1.869243594      0.000000000
H       -1.860502862     -0.960285439      0.000000000
end

basis "ao basis" SPHERICAL
H    S
      3.42525091             0.15432897
      0.62391373             0.53532814
      0.16885540             0.44463454
C    S
     71.6168370              0.15432897
     13.0450960              0.53532814
      3.5305122              0.44463454
C    SP
      2.9412494             -0.09996723             0.15591627
      0.6834831              0.39951283             0.60768372
      0.2222899              0.70011547             0.39195739
end

scf
  rhf
  singlet
end

task scf
================================================================================


                                         
                                         


              Northwest Computational Chemistry Package (NWChem) 6.6
              ------------------------------------------------------


                    Environmental Molecular Sciences Laboratory
                       Pacific Northwest National Laboratory
                                Richland, WA 99352

                              Copyright (c) 1994-2015
                       Pacific Northwest National Laboratory
                            Battelle Memorial Institute

             NWChem is an open-source computational chemistry package
                        distributed under the terms of the
                      Educational Community License (ECL) 2.0
             A copy of the license is included with this distribution
                              in the LICENSE.TXT file

                                  ACKNOWLEDGMENT
                                  --------------

            This software and its documentation were developed at the
            EMSL at Pacific Northwest National Laboratory, a multiprogram
            national laboratory, operated for the U.S. Department of Energy
            by Battelle under Contract Number DE-AC05-76RL01830. Support
            for this work was provided by the Department of Energy Office
            of Biological and Environmental Research, Office of Basic
            Energy Sciences, and the Office of Advanced Scientific Computing.


           Job information
           ---------------

    hostname        = avo
    program         = nwchem
    date            = Sat Mar 12 23:41:59 2016

    compiled        = Пт_ноя_20_00:03:40_2015
    source          = /opt/nwchem/nwchem-6.6
    nwchem branch   = 6.6
    nwchem revision = 27746
    ga revision     = 10594
    input           = C4H4.nw
    prefix          = C4H4_3.
    data base       = ./C4H4_3.db
    status          = startup
    nproc           =        1
    time left       =     -1s



           Memory information
           ------------------

    heap     =   46991806 doubles =    358.5 Mbytes
    stack    =   46991803 doubles =    358.5 Mbytes
    global   =   93983616 doubles =    717.0 Mbytes (distinct from heap & stack)
    total    =  187967225 doubles =   1434.1 Mbytes
    verify   = yes
    hardfail = no 


           Directory information
           ---------------------

  0 permanent = .
  0 scratch   = .




                                NWChem Input Module
                                -------------------



          ------
          auto-z
          ------
  autoz: excessive number of variables                   322                   18

 AUTOZ failed to generate good internal coordinates.
 Cartesian coordinates will be used in optimizations.



                             Geometry "geometry" -> ""
                             -------------------------

 Output coordinates in a.u. (scale by  1.000000000 to convert to a.u.)

  No.       Tag          Charge          X              Y              Z
 ---- ---------------- ---------- -------------- -------------- --------------
    1 C                    6.0000    -0.48439984     0.85817867     0.00000000
    2 C                    6.0000    -0.91493704    -0.47186582     0.00000000
    3 C                    6.0000     0.87687153     0.53941380     0.00000000
    4 C                    6.0000     0.52826613    -0.93600052     0.00000000
    5 H                    1.0000    -1.01609699     1.80022375     0.00000000
    6 H                    1.0000     1.79711014     1.10520376     0.00000000
    7 H                    1.0000     1.05901377    -1.87637122     0.00000000
    8 H                    1.0000    -1.87483159    -0.96741306     0.00000000

      Atomic Mass 
      ----------- 

      C                 12.000000
      H                  1.007825


 Effective nuclear repulsion energy (a.u.)     186.0881367148

            Nuclear Dipole moment (a.u.) 
            ----------------------------
        X                 Y               Z
 ---------------- ---------------- ----------------
    -0.0000000000    -0.0000000000     0.0000000000


            XYZ format geometry
            -------------------
     8
 geometry
 C                    -0.25633338     0.45412863     0.00000000
 C                    -0.48416386    -0.24970066     0.00000000
 C                     0.46402046     0.28544551     0.00000000
 C                     0.27954642    -0.49531018     0.00000000
 H                    -0.53769541     0.95263745     0.00000000
 H                     0.95098980     0.58484868     0.00000000
 H                     0.56040599    -0.99293296     0.00000000
 H                    -0.99211822    -0.51193298     0.00000000

 ==============================================================================
                                internuclear distances
 ------------------------------------------------------------------------------
       center one      |      center two      | atomic units |       a.u.
 ------------------------------------------------------------------------------
    2 C                |   1 C                |     1.39799  |     1.39799
    3 C                |   1 C                |     1.39810  |     1.39810
    3 C                |   2 C                |     2.05749  |     2.05749
    4 C                |   1 C                |     2.06024  |     2.06024
    4 C                |   2 C                |     1.51600  |     1.51600
    4 C                |   3 C                |     1.51604  |     1.51604
    5 H                |   1 C                |     1.08174  |     1.08174
    6 H                |   3 C                |     1.08026  |     1.08026
    7 H                |   4 C                |     1.07981  |     1.07981
    8 H                |   2 C                |     1.08026  |     1.08026
 ------------------------------------------------------------------------------
                         number of included internuclear distances:         10
 ==============================================================================



 ==============================================================================
                                 internuclear angles
 ------------------------------------------------------------------------------
        center 1       |       center 2       |       center 3       |  degrees
 ------------------------------------------------------------------------------
    2 C                |   1 C                |   3 C                |    94.76
    1 C                |   2 C                |   4 C                |    89.89
    2 C                |   1 C                |   5 H                |   132.62
    1 C                |   3 C                |   4 C                |    89.89
    3 C                |   1 C                |   5 H                |   132.62
    4 C                |   1 C                |   5 H                |   180.00
    2 C                |   1 C                |   3 C                |    94.76
    1 C                |   2 C                |   4 C                |    89.89
    1 C                |   2 C                |   8 H                |   135.24
    2 C                |   4 C                |   3 C                |    85.47
    3 C                |   2 C                |   8 H                |   177.87
    4 C                |   2 C                |   8 H                |   134.87
    3 C                |   1 C                |   2 C                |    94.76
    1 C                |   3 C                |   4 C                |    89.89
    1 C                |   3 C                |   6 H                |   135.24
    3 C                |   4 C                |   2 C                |    85.47
    2 C                |   3 C                |   6 H                |   177.86
    4 C                |   3 C                |   6 H                |   134.88
    4 C                |   2 C                |   1 C                |    89.89
    4 C                |   3 C                |   1 C                |    89.89
    1 C                |   4 C                |   7 H                |   180.00
    2 C                |   4 C                |   3 C                |    85.47
    2 C                |   4 C                |   7 H                |   137.27
    3 C                |   4 C                |   7 H                |   137.27
 ------------------------------------------------------------------------------
                            number of included internuclear angles:         24
 ==============================================================================



                      Basis "ao basis" -> "" (spherical)
                      -----
  H (Hydrogen)
  ------------
            Exponent  Coefficients 
       -------------- ---------------------------------------------------------
  1 S  3.42525091E+00  0.154329
  1 S  6.23913730E-01  0.535328
  1 S  1.68855400E-01  0.444635

  C (Carbon)
  ----------
            Exponent  Coefficients 
       -------------- ---------------------------------------------------------
  1 S  7.16168370E+01  0.154329
  1 S  1.30450960E+01  0.535328
  1 S  3.53051220E+00  0.444635

  2 S  2.94124940E+00 -0.099967
  2 S  6.83483100E-01  0.399513
  2 S  2.22289900E-01  0.700115

  3 P  2.94124940E+00  0.155916
  3 P  6.83483100E-01  0.607684
  3 P  2.22289900E-01  0.391957



 Summary of "ao basis" -> "" (spherical)
 ------------------------------------------------------------------------------
       Tag                 Description            Shells   Functions and Types
 ---------------- ------------------------------  ------  ---------------------
 H                       user specified              1        1   1s
 C                       user specified              3        5   2s1p


                                 NWChem SCF Module
                                 -----------------



  ao basis        = "ao basis"
  functions       =    24
  atoms           =     8
  closed shells   =    14
  open shells     =     0
  charge          =   0.00
  wavefunction    = RHF 
  input vectors   = atomic
  output vectors  = ./C4H4_3.movecs
  use symmetry    = F
  symmetry adapt  = F


 Summary of "ao basis" -> "ao basis" (spherical)
 ------------------------------------------------------------------------------
       Tag                 Description            Shells   Functions and Types
 ---------------- ------------------------------  ------  ---------------------
 H                       user specified              1        1   1s
 C                       user specified              3        5   2s1p



 Forming initial guess at       0.0s


      Superposition of Atomic Density Guess
      -------------------------------------

 Sum of atomic energies:        -150.57930070

      Non-variational initial energy
      ------------------------------

 Total energy =    -162.711851
 1-e energy   =    -553.145210
 2-e energy   =     204.345223
 HOMO         =      -0.210042
 LUMO         =      -0.208139


 Starting SCF solution at       0.1s



 ----------------------------------------------
         Quadratically convergent ROHF

 Convergence threshold     :          1.000E-04
 Maximum no. of iterations :           30
 Final Fock-matrix accuracy:          1.000E-07
 ----------------------------------------------


 #quartets = 9.316D+03 #integrals = 2.904D+04 #direct =  0.0% #cached =100.0%


 Integral file          = ./C4H4_3.aoints.0
 Record size in doubles =  65536        No. of integs per rec  =  43688
 Max. records in memory =      3        Max. records in file   = 712545
 No. of bits per label  =      8        No. of bits per value  =     64


              iter       energy          gnorm     gmax       time
             ----- ------------------- --------- --------- --------
                 1     -142.2588597642  7.42D-01  3.62D-01      0.8
                 2     -142.2831104696  8.97D-02  3.32D-02      0.8
                 3     -142.2835208450  2.95D-03  2.62D-03      0.9
                 4     -142.3064020838  3.06D-01  1.32D-01      0.9
                 5     -142.3105997730  4.55D-02  2.34D-02      0.9
                 6     -142.3120314978  6.22D-03  2.39D-03      0.9
                 7     -142.3120409592  2.95D-05  1.16D-05      0.9


       Final RHF  results 
       ------------------ 

         Total SCF energy =   -142.312040959150
      One-electron energy =   -542.076808981959
      Two-electron energy =    213.676631308007
 Nuclear repulsion energy =    186.088136714802

        Time for solution =      0.4s


             Final eigenvalues
             -----------------

              1      
    1  -11.8520
    2  -11.6972
    3  -11.6746
    4  -11.5848
    5   -2.1408
    6   -1.2486
    7   -1.2122
    8   -1.2053
    9   -1.1837
   10   -1.0259
   11   -0.8263
   12   -0.6358
   13   -0.6260
   14   -0.4487
   15   -0.0254
   16    0.8592
   17    1.1061
   18    1.7128
   19    1.8130
   20    2.0635
   21    2.0720
   22    2.1717
   23    2.5365
   24    5.0441

                       ROHF Final Molecular Orbital Analysis
                       -------------------------------------

 Vector    5  Occ=2.000000D+00  E=-2.140777D+00
              MO Center=  9.1D-03, -1.7D-02,  2.6D-16, r^2= 3.3D-01
   Bfn.  Coefficient  Atom+Function         Bfn.  Coefficient  Atom+Function  
  ----- ------------  ---------------      ----- ------------  ---------------
     4      0.360362  1 C  py                 8     -0.360008  2 C  px         
    13      0.343013  3 C  px                19     -0.342698  4 C  py         
     1      0.248345  1 C  s                  6      0.242116  2 C  s          
    11      0.241934  3 C  s                 16      0.235826  4 C  s          
    21     -0.217175  5 H  s                 14      0.210750  3 C  py         

 Vector    6  Occ=2.000000D+00  E=-1.248579D+00
              MO Center= -1.3D-01,  6.4D-01,  7.2D-16, r^2= 1.0D+00
   Bfn.  Coefficient  Atom+Function         Bfn.  Coefficient  Atom+Function  
  ----- ------------  ---------------      ----- ------------  ---------------
     4      0.329917  1 C  py                14      0.327808  3 C  py         
     2      0.301767  1 C  s                  8     -0.275557  2 C  px         
     7      0.270393  2 C  s                 12      0.258359  3 C  s          
    17      0.195712  4 C  s                  1     -0.164273  1 C  s          

 Vector    7  Occ=2.000000D+00  E=-1.212244D+00
              MO Center= -2.3D-02,  3.6D-02,  1.1D-15, r^2= 9.8D-01
   Bfn.  Coefficient  Atom+Function         Bfn.  Coefficient  Atom+Function  
  ----- ------------  ---------------      ----- ------------  ---------------
     5      0.351772  1 C  pz                10      0.315964  2 C  pz         
    15      0.311100  3 C  pz                20      0.279504  4 C  pz         

 Vector    8  Occ=2.000000D+00  E=-1.205279D+00
              MO Center= -3.1D-01, -2.6D-01, -1.6D-15, r^2= 1.2D+00
   Bfn.  Coefficient  Atom+Function         Bfn.  Coefficient  Atom+Function  
  ----- ------------  ---------------      ----- ------------  ---------------
     3      0.386889  1 C  px                19      0.257346  4 C  py         
    18      0.226223  4 C  px                 6      0.216116  2 C  s          
     7     -0.202187  2 C  s                  9      0.191960  2 C  py         
    11     -0.183248  3 C  s                 24     -0.182902  8 H  s          
    22      0.157729  6 H  s          

 Vector    9  Occ=2.000000D+00  E=-1.183706D+00
              MO Center=  3.5D-01, -2.9D-01, -6.2D-17, r^2= 1.2D+00
   Bfn.  Coefficient  Atom+Function         Bfn.  Coefficient  Atom+Function  
  ----- ------------  ---------------      ----- ------------  ---------------
     9      0.351656  2 C  py                13     -0.283249  3 C  px         
    17     -0.273624  4 C  s                 12     -0.194965  3 C  s          
    16      0.193971  4 C  s                 23     -0.177818  7 H  s          
    18     -0.167743  4 C  px                 1     -0.166602  1 C  s          
     4     -0.152701  1 C  py         

 Vector   10  Occ=2.000000D+00  E=-1.025911D+00
              MO Center=  6.0D-02, -4.6D-02, -3.5D-18, r^2= 1.1D+00
   Bfn.  Coefficient  Atom+Function         Bfn.  Coefficient  Atom+Function  
  ----- ------------  ---------------      ----- ------------  ---------------
     3      0.413566  1 C  px                18     -0.395662  4 C  px         
     9     -0.393103  2 C  py                14      0.369179  3 C  py         
    13     -0.270186  3 C  px                 8      0.211798  2 C  px         
     4      0.210253  1 C  py                19     -0.194802  4 C  py         

 Vector   11  Occ=2.000000D+00  E=-8.262875D-01
              MO Center=  7.4D-02, -1.3D-01,  2.4D-17, r^2= 1.6D+00
   Bfn.  Coefficient  Atom+Function         Bfn.  Coefficient  Atom+Function  
  ----- ------------  ---------------      ----- ------------  ---------------
    19      0.395739  4 C  py                13      0.318683  3 C  px         
    23     -0.307477  7 H  s                  8     -0.287323  2 C  px         
    22      0.288005  6 H  s                 24      0.286322  8 H  s          
    21     -0.271253  5 H  s                  4     -0.232127  1 C  py         
     9     -0.217128  2 C  py                18     -0.202145  4 C  px         

 Vector   12  Occ=2.000000D+00  E=-6.357631D-01
              MO Center= -3.4D-02, -9.9D-03, -4.5D-17, r^2= 1.1D+00
   Bfn.  Coefficient  Atom+Function         Bfn.  Coefficient  Atom+Function  
  ----- ------------  ---------------      ----- ------------  ---------------
     8      0.797705  2 C  px                13      0.765617  3 C  px         
     3     -0.579823  1 C  px                18     -0.533812  4 C  px         
    14      0.342109  3 C  py                 9      0.290401  2 C  py         
    12     -0.249342  3 C  s                  7      0.241567  2 C  s          
    24     -0.223682  8 H  s                 22      0.197701  6 H  s          

 Vector   13  Occ=2.000000D+00  E=-6.259568D-01
              MO Center= -2.7D-02,  1.2D-01,  6.3D-18, r^2= 1.1D+00
   Bfn.  Coefficient  Atom+Function         Bfn.  Coefficient  Atom+Function  
  ----- ------------  ---------------      ----- ------------  ---------------
     4      0.840340  1 C  py                19      0.727184  4 C  py         
    14     -0.572242  3 C  py                 9     -0.550459  2 C  py         
     3     -0.322802  1 C  px                18     -0.269119  4 C  px         
    17      0.266847  4 C  s                 21      0.243173  5 H  s          
     2     -0.218657  1 C  s                 23     -0.179259  7 H  s          

 Vector   14  Occ=2.000000D+00  E=-4.486987D-01
              MO Center=  2.7D-02, -2.8D-02, -6.7D-17, r^2= 1.1D+00
   Bfn.  Coefficient  Atom+Function         Bfn.  Coefficient  Atom+Function  
  ----- ------------  ---------------      ----- ------------  ---------------
    20     -0.644942  4 C  pz                15     -0.637753  3 C  pz         
    10      0.618858  2 C  pz                 5      0.602168  1 C  pz         

 Vector   15  Occ=0.000000D+00  E=-2.539126D-02
              MO Center=  1.4D-02, -3.6D-02, -1.5D-16, r^2= 1.1D+00
   Bfn.  Coefficient  Atom+Function         Bfn.  Coefficient  Atom+Function  
  ----- ------------  ---------------      ----- ------------  ---------------
    20     -0.651154  4 C  pz                10     -0.629077  2 C  pz         
    15      0.620536  3 C  pz                 5      0.602622  1 C  pz         

 Vector   16  Occ=0.000000D+00  E= 8.592140D-01
              MO Center= -1.5D-02,  2.3D-02,  7.9D-18, r^2= 1.0D+00
   Bfn.  Coefficient  Atom+Function         Bfn.  Coefficient  Atom+Function  
  ----- ------------  ---------------      ----- ------------  ---------------
     5      1.186409  1 C  pz                10     -1.101746  2 C  pz         
    15     -1.097097  3 C  pz                20      1.008155  4 C  pz         

 Vector   17  Occ=0.000000D+00  E= 1.106104D+00
              MO Center= -2.7D-02,  5.1D-02,  7.2D-17, r^2= 2.0D+00
   Bfn.  Coefficient  Atom+Function         Bfn.  Coefficient  Atom+Function  
  ----- ------------  ---------------      ----- ------------  ---------------
    21      1.516752  5 H  s                 22      1.449217  6 H  s          
    24      1.444031  8 H  s                 23      1.394162  7 H  s          
    17     -1.292803  4 C  s                 12     -1.178873  3 C  s          
     7     -1.164616  2 C  s                  2     -1.073505  1 C  s          
     4     -0.624710  1 C  py                 8      0.597816  2 C  px         

 Vector   18  Occ=0.000000D+00  E= 1.712823D+00
              MO Center=  9.5D-02, -3.6D-01,  6.5D-18, r^2= 8.2D-01
   Bfn.  Coefficient  Atom+Function         Bfn.  Coefficient  Atom+Function  
  ----- ------------  ---------------      ----- ------------  ---------------
     7      3.991728  2 C  s                 12     -3.753180  3 C  s          
    18      2.070223  4 C  px                 8      1.460096  2 C  px         
    14      1.057726  3 C  py                19      0.983546  4 C  py         
    17     -0.972124  4 C  s                  2      0.772477  1 C  s          
     9     -0.614369  2 C  py                13      0.558664  3 C  px         

 Vector   19  Occ=0.000000D+00  E= 1.812964D+00
              MO Center=  1.4D-01, -5.6D-02,  3.0D-19, r^2= 9.5D-01
   Bfn.  Coefficient  Atom+Function         Bfn.  Coefficient  Atom+Function  
  ----- ------------  ---------------      ----- ------------  ---------------
    17      5.235420  4 C  s                  2     -4.372465  1 C  s          
    14      1.773259  3 C  py                 9      1.465422  2 C  py         
    19      1.342407  4 C  py                12     -1.129332  3 C  s          
     4      0.888864  1 C  py                23     -0.793565  7 H  s          
    13     -0.762353  3 C  px                21      0.528309  5 H  s          

 Vector   20  Occ=0.000000D+00  E= 2.063476D+00
              MO Center=  4.3D-02, -6.2D-03, -9.4D-18, r^2= 1.7D+00
   Bfn.  Coefficient  Atom+Function         Bfn.  Coefficient  Atom+Function  
  ----- ------------  ---------------      ----- ------------  ---------------
    22      2.175342  6 H  s                 24     -2.059399  8 H  s          
     8     -1.533499  2 C  px                23     -1.499490  7 H  s          
    13     -1.359049  3 C  px                21      1.254331  5 H  s          
    12     -1.211105  3 C  s                  7      1.097616  2 C  s          
    19     -1.094983  4 C  py                14     -1.032245  3 C  py         

 Vector   21  Occ=0.000000D+00  E= 2.071985D+00
              MO Center=  2.9D-02, -8.2D-02,  1.0D-17, r^2= 1.6D+00
   Bfn.  Coefficient  Atom+Function         Bfn.  Coefficient  Atom+Function  
  ----- ------------  ---------------      ----- ------------  ---------------
    23      2.167751  7 H  s                 21     -1.889382  5 H  s          
     4      1.733884  1 C  py                19      1.638194  4 C  py         
    24     -1.407389  8 H  s                 22      1.341931  6 H  s          
     8     -1.160686  2 C  px                18     -1.103625  4 C  px         
    12     -0.843681  3 C  s                  7      0.833667  2 C  s          

 Vector   22  Occ=0.000000D+00  E= 2.171733D+00
              MO Center= -1.5D-01,  2.7D-01,  9.0D-18, r^2= 8.0D-01
   Bfn.  Coefficient  Atom+Function         Bfn.  Coefficient  Atom+Function  
  ----- ------------  ---------------      ----- ------------  ---------------
    12     -3.201337  3 C  s                  7      2.995013  2 C  s          
     3      2.556517  1 C  px                 9      2.085743  2 C  py         
    13      1.858881  3 C  px                 4      1.361317  1 C  py         
    14     -0.891376  3 C  py                18     -0.432498  4 C  px         
    19     -0.428035  4 C  py                 8      0.271998  2 C  px         

 Vector   23  Occ=0.000000D+00  E= 2.536518D+00
              MO Center= -9.9D-02,  1.5D-01, -2.0D-17, r^2= 1.6D+00
   Bfn.  Coefficient  Atom+Function         Bfn.  Coefficient  Atom+Function  
  ----- ------------  ---------------      ----- ------------  ---------------
     2      3.502185  1 C  s                  7     -2.636641  2 C  s          
    12     -2.427227  3 C  s                 21     -2.236257  5 H  s          
    24      1.942263  8 H  s                 22      1.911463  6 H  s          
    23     -1.616293  7 H  s                 17      1.559357  4 C  s          
     8      1.048255  2 C  px                19     -0.845072  4 C  py         

 Vector   24  Occ=0.000000D+00  E= 5.044118D+00
              MO Center= -4.5D-02,  7.9D-02, -2.6D-18, r^2= 8.8D-01
   Bfn.  Coefficient  Atom+Function         Bfn.  Coefficient  Atom+Function  
  ----- ------------  ---------------      ----- ------------  ---------------
     2      9.905377  1 C  s                  7     -8.397411  2 C  s          
    12     -8.398160  3 C  s                 17      6.916081  4 C  s          
     4     -2.803491  1 C  py                13      2.658736  3 C  px         
     8     -2.488268  2 C  px                19      2.276243  4 C  py         
     9     -1.601905  2 C  py                 3      1.584068  1 C  px         


 center of mass
 --------------
 x =   0.00066368 y =  -0.00117546 z =   0.00000000

 moments of inertia (a.u.)
 ------------------
          34.502963169038           0.081701548469           0.000000000000
           0.081701548469          34.404831080641           0.000000000000
           0.000000000000           0.000000000000          68.907794249679

  Mulliken analysis of the total density
  --------------------------------------

    Atom       Charge   Shell Charges
 -----------   ------   -------------------------------------------------------
    1 C    6     6.37   2.00  0.36  4.01
    2 C    6     6.28   2.00  0.38  3.90
    3 C    6     6.31   2.00  0.38  3.93
    4 C    6     6.24   2.00  0.41  3.83
    5 H    1     0.67   0.67
    6 H    1     0.70   0.70
    7 H    1     0.73   0.73
    8 H    1     0.70   0.70

       Multipole analysis of the density wrt the origin
       ------------------------------------------------

     L   x y z        total         open         nuclear
     -   - - -        -----         ----         -------
     0   0 0 0     -0.000000      0.000000     28.000000

     1   1 0 0     -0.017052      0.000000     -0.000000
     1   0 1 0     -0.018216      0.000000     -0.000000
     1   0 0 1     -0.000000      0.000000      0.000000

     2   2 0 0    -17.439032      0.000000     21.616892
     2   1 1 0      0.371111      0.000000     -0.049005
     2   1 0 1     -0.000000      0.000000      0.000000
     2   0 2 0    -16.154331      0.000000     21.676091
     2   0 1 1      0.000000      0.000000      0.000000
     2   0 0 2    -14.926615      0.000000      0.000000


 Parallel integral file used       1 records with       0 large values


 Task  times  cpu:        0.5s     wall:        0.3s
 Summary of allocated global arrays
-----------------------------------
  No active global arrays



                         GA Statistics for process    0
                         ------------------------------

       create   destroy   get      put      acc     scatter   gather  read&inc
calls:  589      589     4479     3112     4318        0        0       57     
number of processes/call 1.00e+00 1.00e+00 1.00e+00 0.00e+00 0.00e+00
bytes total:             4.62e+06 3.15e+06 6.44e+05 0.00e+00 0.00e+00 4.56e+02
bytes remote:            0.00e+00 0.00e+00 0.00e+00 0.00e+00 0.00e+00 0.00e+00
Max memory consumed for GA by this process: 68352 bytes
MA_summarize_allocated_blocks: starting scan ...
MA_summarize_allocated_blocks: scan completed: 0 heap blocks, 0 stack blocks
MA usage statistics:

	allocation statistics:
					      heap	     stack
					      ----	     -----
	current number of blocks	         0	         0
	maximum number of blocks	        17	        14
	current total bytes		         0	         0
	maximum total bytes		   1584704	  22509752
	maximum total K-bytes		      1585	     22510
	maximum total M-bytes		         2	        23


                                NWChem Input Module
                                -------------------





                                     CITATION
                                     --------
                Please cite the following reference when publishing
                           results obtained with NWChem:

                 M. Valiev, E.J. Bylaska, N. Govind, K. Kowalski,
              T.P. Straatsma, H.J.J. van Dam, D. Wang, J. Nieplocha,
                        E. Apra, T.L. Windus, W.A. de Jong
                 "NWChem: a comprehensive and scalable open-source
                  solution for large scale molecular simulations"
                      Comput. Phys. Commun. 181, 1477 (2010)
                           doi:10.1016/j.cpc.2010.04.018

                                      AUTHORS
                                      -------
          E. Apra, E. J. Bylaska, W. A. de Jong, N. Govind, K. Kowalski,
       T. P. Straatsma, M. Valiev, H. J. J. van Dam, D. Wang, T. L. Windus,
        J. Hammond, J. Autschbach, K. Bhaskaran-Nair, J. Brabec, K. Lopata,
       S. A. Fischer, S. Krishnamoorthy, W. Ma, M. Klemm, O. Villa, Y. Chen,
    V. Anisimov, F. Aquino, S. Hirata, M. T. Hackler, T. Risthaus, M. Malagoli,
       A. Marenich, A. Otero-de-la-Roza, J. Mullin, P. Nichols, R. Peverati,
     J. Pittner, Y. Zhao, P.-D. Fan, A. Fonari, M. Williamson, R. J. Harrison,
       J. R. Rehr, M. Dupuis, D. Silverstein, D. M. A. Smith, J. Nieplocha,
        V. Tipparaju, M. Krishnan, B. E. Van Kuiken, A. Vazquez-Mayagoitia,
        L. Jensen, M. Swart, Q. Wu, T. Van Voorhis, A. A. Auer, M. Nooijen,
      L. D. Crosby, E. Brown, G. Cisneros, G. I. Fann, H. Fruchtl, J. Garza,
        K. Hirao, R. A. Kendall, J. A. Nichols, K. Tsemekhman, K. Wolinski,
     J. Anchell, D. E. Bernholdt, P. Borowski, T. Clark, D. Clerc, H. Dachsel,
   M. J. O. Deegan, K. Dyall, D. Elwood, E. Glendening, M. Gutowski, A. C. Hess,
         J. Jaffe, B. G. Johnson, J. Ju, R. Kobayashi, R. Kutteh, Z. Lin,
   R. Littlefield, X. Long, B. Meng, T. Nakajima, S. Niu, L. Pollack, M. Rosing,
   K. Glaesemann, G. Sandrone, M. Stave, H. Taylor, G. Thomas, J. H. van Lenthe,
                               A. T. Wong, Z. Zhang.

 Total times  cpu:        0.6s     wall:        0.3s
