[Molden Format]
[Atoms] Angs
  C   1   6    0.00000000    2.63805748    0.00000000
  C   2   6    2.28467872    1.31902874    0.00000000
  C   3   6    2.28467872   -1.31902874    0.00000000
  C   4   6    0.00000000   -2.63805748    0.00000000
  C   5   6   -2.28467872   -1.31902874    0.00000000
  C   6   6   -2.28467872    1.31902874    0.00000000
  H   7   1    0.00000000    4.68463073    0.00000000
  H   8   1    4.05724170    2.34326023    0.00000000
  H   9   1    4.05724170   -2.34326023    0.00000000
  H  10   1    0.00000000   -4.68463073    0.00000000
  H  11   1   -4.05724170   -2.34326023    0.00000000
  H  12   1   -4.05724170    2.34326023    0.00000000
[5D]
[GTO]
   1
 s  3
 7.16168370e+01  1.54328970e-01
 1.30450960e+01  5.35328140e-01
 3.53051220e+00  4.44634540e-01
 s  3
 2.94124940e+00  -9.99672300e-02
 6.83483100e-01  3.99512830e-01
 2.22289900e-01  7.00115470e-01
 p  3
 2.94124940e+00  1.55916270e-01
 6.83483100e-01  6.07683720e-01
 2.22289900e-01  3.91957390e-01

   2
 s  3
 7.16168370e+01  1.54328970e-01
 1.30450960e+01  5.35328140e-01
 3.53051220e+00  4.44634540e-01
 s  3
 2.94124940e+00  -9.99672300e-02
 6.83483100e-01  3.99512830e-01
 2.22289900e-01  7.00115470e-01
 p  3
 2.94124940e+00  1.55916270e-01
 6.83483100e-01  6.07683720e-01
 2.22289900e-01  3.91957390e-01

   3
 s  3
 7.16168370e+01  1.54328970e-01
 1.30450960e+01  5.35328140e-01
 3.53051220e+00  4.44634540e-01
 s  3
 2.94124940e+00  -9.99672300e-02
 6.83483100e-01  3.99512830e-01
 2.22289900e-01  7.00115470e-01
 p  3
 2.94124940e+00  1.55916270e-01
 6.83483100e-01  6.07683720e-01
 2.22289900e-01  3.91957390e-01

   4
 s  3
 7.16168370e+01  1.54328970e-01
 1.30450960e+01  5.35328140e-01
 3.53051220e+00  4.44634540e-01
 s  3
 2.94124940e+00  -9.99672300e-02
 6.83483100e-01  3.99512830e-01
 2.22289900e-01  7.00115470e-01
 p  3
 2.94124940e+00  1.55916270e-01
 6.83483100e-01  6.07683720e-01
 2.22289900e-01  3.91957390e-01

   5
 s  3
 7.16168370e+01  1.54328970e-01
 1.30450960e+01  5.35328140e-01
 3.53051220e+00  4.44634540e-01
 s  3
 2.94124940e+00  -9.99672300e-02
 6.83483100e-01  3.99512830e-01
 2.22289900e-01  7.00115470e-01
 p  3
 2.94124940e+00  1.55916270e-01
 6.83483100e-01  6.07683720e-01
 2.22289900e-01  3.91957390e-01

   6
 s  3
 7.16168370e+01  1.54328970e-01
 1.30450960e+01  5.35328140e-01
 3.53051220e+00  4.44634540e-01
 s  3
 2.94124940e+00  -9.99672300e-02
 6.83483100e-01  3.99512830e-01
 2.22289900e-01  7.00115470e-01
 p  3
 2.94124940e+00  1.55916270e-01
 6.83483100e-01  6.07683720e-01
 2.22289900e-01  3.91957390e-01

   7
 s  3
 3.42525091e+00  1.54328970e-01
 6.23913730e-01  5.35328140e-01
 1.68855400e-01  4.44634540e-01

   8
 s  3
 3.42525091e+00  1.54328970e-01
 6.23913730e-01  5.35328140e-01
 1.68855400e-01  4.44634540e-01

   9
 s  3
 3.42525091e+00  1.54328970e-01
 6.23913730e-01  5.35328140e-01
 1.68855400e-01  4.44634540e-01

  10
 s  3
 3.42525091e+00  1.54328970e-01
 6.23913730e-01  5.35328140e-01
 1.68855400e-01  4.44634540e-01

  11
 s  3
 3.42525091e+00  1.54328970e-01
 6.23913730e-01  5.35328140e-01
 1.68855400e-01  4.44634540e-01

  12
 s  3
 3.42525091e+00  1.54328970e-01
 6.23913730e-01  5.35328140e-01
 1.68855400e-01  4.44634540e-01

[MO]
Sym=C1
Ene=  -300.1168575
Spin=Alpha
Occup=2.00000000
   1  -0.00000000
   2  -0.00000000
   3   0.00377330
   4  -0.00000000
   5   0.00000000
   6  -0.49626068
   7  -0.01456312
   8   0.00053342
   9  -0.00187113
  10  -0.00000000
  11  -0.49626067
  12  -0.01456312
  13   0.00053342
  14   0.00187113
  15  -0.00000000
  16   0.00000000
  17   0.00000000
  18   0.00377330
  19  -0.00000000
  20  -0.00000000
  21   0.49626068
  22   0.01456312
  23   0.00053342
  24  -0.00187113
  25   0.00000000
  26   0.49626068
  27   0.01456312
  28   0.00053342
  29   0.00187113
  30  -0.00000000
  31   0.00000000
  32   0.00330100
  33   0.00330100
  34  -0.00000000
  35  -0.00330100
  36  -0.00330100
Sym=C1
Ene=  -300.1164436
Spin=Alpha
Occup=2.00000000
   1   0.56381837
   2   0.01634470
   3   0.00000000
   4   0.00060343
   5   0.00000000
   6   0.29551431
   7   0.00887489
   8   0.00182256
   9  -0.00271965
  10   0.00000000
  11  -0.29551431
  12  -0.00887489
  13  -0.00182256
  14  -0.00271965
  15  -0.00000000
  16  -0.56381837
  17  -0.01634470
  18   0.00000000
  19   0.00060343
  20   0.00000000
  21  -0.29551431
  22  -0.00887489
  23   0.00182256
  24  -0.00271965
  25   0.00000000
  26   0.29551431
  27   0.00887489
  28  -0.00182256
  29  -0.00271965
  30   0.00000000
  31  -0.00374730
  32  -0.00197062
  33   0.00197062
  34   0.00374730
  35   0.00197062
  36  -0.00197062
Sym=C1
Ene=  -300.1159341
Spin=Alpha
Occup=2.00000000
   1  -0.38639762
   2  -0.00837956
   3   0.00000000
   4  -0.00160876
   5   0.00000000
   6  -0.41459638
   7  -0.00960630
   8  -0.00125447
   9  -0.00085301
  10  -0.00000000
  11  -0.41459638
  12  -0.00960630
  13  -0.00125447
  14   0.00085301
  15   0.00000000
  16  -0.38639762
  17  -0.00837956
  18   0.00000000
  19   0.00160876
  20   0.00000000
  21  -0.41459638
  22  -0.00960630
  23   0.00125447
  24   0.00085301
  25   0.00000000
  26  -0.41459638
  27  -0.00960630
  28   0.00125447
  29  -0.00085301
  30  -0.00000000
  31   0.00268620
  32   0.00288105
  33   0.00288105
  34   0.00268620
  35   0.00288105
  36   0.00288105
Sym=C1
Ene=  -300.1072969
Spin=Alpha
Occup=2.00000000
   1  -0.00000000
   2  -0.00000000
   3  -0.00390395
   4   0.00000000
   5   0.00000000
   6   0.49589421
   7   0.02158969
   8  -0.00045772
   9  -0.00251731
  10  -0.00000000
  11  -0.49589421
  12  -0.02158969
  13   0.00045772
  14  -0.00251731
  15  -0.00000000
  16  -0.00000000
  17  -0.00000000
  18   0.00390395
  19  -0.00000000
  20   0.00000000
  21   0.49589421
  22   0.02158969
  23   0.00045772
  24   0.00251731
  25  -0.00000000
  26  -0.49589421
  27  -0.02158969
  28  -0.00045772
  29   0.00251731
  30   0.00000000
  31   0.00000000
  32  -0.00345030
  33   0.00345030
  34   0.00000000
  35  -0.00345030
  36   0.00345030
Sym=C1
Ene=  -300.1068686
Spin=Alpha
Occup=2.00000000
   1   0.58561044
   2   0.02522047
   3  -0.00000000
   4  -0.00185749
   5   0.00000000
   6  -0.27284026
   7  -0.01215602
   8   0.00256065
   9  -0.00242373
  10   0.00000000
  11  -0.27284026
  12  -0.01215602
  13   0.00256065
  14   0.00242373
  15   0.00000000
  16   0.58561044
  17   0.02522047
  18   0.00000000
  19   0.00185749
  20  -0.00000000
  21  -0.27284026
  22  -0.01215602
  23  -0.00256065
  24   0.00242373
  25   0.00000000
  26  -0.27284026
  27  -0.01215602
  28  -0.00256065
  29  -0.00242373
  30  -0.00000000
  31  -0.00407656
  32   0.00189854
  33   0.00189854
  34  -0.00407656
  35   0.00189854
  36   0.00189854
Sym=C1
Ene=  -300.1032053
Spin=Alpha
Occup=2.00000000
   1   0.41747835
   2   0.02129433
   3   0.00000000
   4  -0.00242782
   5   0.00000000
   6  -0.39821640
   7  -0.02072733
   8   0.00215652
   9   0.00115978
  10  -0.00000000
  11   0.39821640
  12   0.02072733
  13  -0.00215652
  14   0.00115978
  15  -0.00000000
  16  -0.41747835
  17  -0.02129433
  18  -0.00000000
  19  -0.00242782
  20  -0.00000000
  21   0.39821640
  22   0.02072733
  23   0.00215652
  24   0.00115978
  25   0.00000000
  26  -0.39821640
  27  -0.02072733
  28  -0.00215652
  29   0.00115978
  30  -0.00000000
  31  -0.00299847
  32   0.00286872
  33  -0.00286872
  34   0.00299847
  35  -0.00286872
  36   0.00286872
Sym=C1
Ene=   -29.6375312
Spin=Alpha
Occup=2.00000000
   1   0.10468312
   2  -0.26503587
   3  -0.00000000
   4   0.06152016
   5  -0.00000000
   6   0.10467222
   7  -0.26501893
   8   0.05330301
   9   0.03076485
  10  -0.00000000
  11   0.10467222
  12  -0.26501893
  13   0.05330301
  14  -0.03076485
  15   0.00000000
  16   0.10468312
  17  -0.26503587
  18  -0.00000000
  19  -0.06152016
  20  -0.00000000
  21   0.10467222
  22  -0.26501893
  23  -0.05330301
  24  -0.03076485
  25   0.00000000
  26   0.10467222
  27  -0.26501893
  28  -0.05330301
  29   0.03076485
  30  -0.00000000
  31  -0.04734439
  32  -0.04730966
  33  -0.04730966
  34  -0.04734439
  35  -0.04730966
  36  -0.04730966
Sym=C1
Ene=   -25.9711108
Spin=Alpha
Occup=2.00000000
   1   0.14640580
   2  -0.39517165
   3   0.00000000
   4   0.02698537
   5  -0.00000000
   6   0.07319439
   7  -0.19757204
   8   0.06802957
   9  -0.09080024
  10   0.00000000
  11  -0.07319439
  12   0.19757204
  13  -0.06802957
  14  -0.09080024
  15  -0.00000000
  16  -0.14640580
  17   0.39517165
  18   0.00000000
  19   0.02698537
  20   0.00000000
  21  -0.07319439
  22   0.19757204
  23   0.06802957
  24  -0.09080024
  25  -0.00000000
  26   0.07319439
  27  -0.19757204
  28  -0.06802957
  29  -0.09080024
  30  -0.00000000
  31  -0.10931512
  32  -0.05462886
  33   0.05462886
  34   0.10931512
  35   0.05462886
  36  -0.05462886
Sym=C1
Ene=   -25.9700940
Spin=Alpha
Occup=2.00000000
   1  -0.00000000
   2   0.00000000
   3   0.13009951
   4  -0.00000000
   5  -0.00000000
   6  -0.12679210
   7   0.34225185
   8   0.01222427
   9  -0.06803173
  10  -0.00000000
  11  -0.12679210
  12   0.34225185
  13   0.01222427
  14   0.06803173
  15  -0.00000000
  16   0.00000000
  17  -0.00000000
  18   0.13009951
  19  -0.00000000
  20  -0.00000000
  21   0.12679210
  22  -0.34225185
  23   0.01222427
  24  -0.06803173
  25  -0.00000000
  26   0.12679210
  27  -0.34225185
  28   0.01222427
  29   0.06803173
  30  -0.00000000
  31   0.00000000
  32   0.09461311
  33   0.09461311
  34  -0.00000000
  35  -0.09461311
  36  -0.09461311
Sym=C1
Ene=   -20.8702459
Spin=Alpha
Occup=2.00000000
   1   0.00000000
   2  -0.00000000
   3   0.23011855
   4  -0.00000000
   5  -0.00000000
   6  -0.09899986
   7   0.29165284
   8   0.00602256
   9   0.13635627
  10  -0.00000000
  11   0.09899986
  12  -0.29165284
  13  -0.00602256
  14   0.13635627
  15  -0.00000000
  16   0.00000000
  17  -0.00000000
  18  -0.23011855
  19   0.00000000
  20  -0.00000000
  21  -0.09899986
  22   0.29165284
  23  -0.00602256
  24  -0.13635627
  25   0.00000000
  26   0.09899986
  27  -0.29165284
  28   0.00602256
  29  -0.13635627
  30   0.00000000
  31  -0.00000000
  32   0.15481060
  33  -0.15481060
  34  -0.00000000
  35   0.15481060
  36  -0.15481060
Sym=C1
Ene=   -20.8701789
Spin=Alpha
Occup=2.00000000
   1   0.11432139
   2  -0.33678199
   3  -0.00000000
   4  -0.08493330
   5  -0.00000000
   6  -0.05716670
   7   0.16841277
   8   0.13621847
   9  -0.15143926
  10  -0.00000000
  11  -0.05716670
  12   0.16841277
  13   0.13621847
  14   0.15143926
  15  -0.00000000
  16   0.11432139
  17  -0.33678199
  18   0.00000000
  19   0.08493330
  20   0.00000000
  21  -0.05716670
  22   0.16841277
  23  -0.13621847
  24   0.15143926
  25   0.00000000
  26  -0.05716670
  27   0.16841277
  28  -0.13621847
  29  -0.15143926
  30   0.00000000
  31  -0.17890734
  32   0.08927943
  33   0.08927943
  34  -0.17890734
  35   0.08927943
  36   0.08927943
Sym=C1
Ene=   -18.0162088
Spin=Alpha
Occup=2.00000000
   1  -0.00867283
   2   0.03534543
   3   0.00000000
   4   0.23443355
   5   0.00000000
   6  -0.00878920
   7   0.03573663
   8   0.20313314
   9   0.11710696
  10  -0.00000000
  11  -0.00878920
  12   0.03573663
  13   0.20313314
  14  -0.11710696
  15   0.00000000
  16  -0.00867283
  17   0.03534543
  18  -0.00000000
  19  -0.23443355
  20  -0.00000000
  21  -0.00878920
  22   0.03573663
  23  -0.20313314
  24  -0.11710696
  25   0.00000000
  26  -0.00878920
  27   0.03573663
  28  -0.20313314
  29   0.11710696
  30   0.00000000
  31   0.17552327
  32   0.17568545
  33   0.17568545
  34   0.17552327
  35   0.17568545
  36   0.17568545
Sym=C1
Ene=   -16.1991234
Spin=Alpha
Occup=2.00000000
   1  -0.06532935
   2   0.21890372
   3   0.00000000
   4   0.16416469
   5  -0.00000000
   6   0.06536865
   7  -0.21904078
   8  -0.14170216
   9  -0.08194606
  10  -0.00000000
  11  -0.06536865
  12   0.21904078
  13   0.14170216
  14  -0.08194606
  15   0.00000000
  16   0.06532935
  17  -0.21890372
  18   0.00000000
  19   0.16416469
  20  -0.00000000
  21  -0.06536865
  22   0.21904078
  23  -0.14170216
  24  -0.08194606
  25  -0.00000000
  26   0.06536865
  27  -0.21904078
  28   0.14170216
  29  -0.08194606
  30  -0.00000000
  31   0.23192202
  32  -0.23156500
  33   0.23156500
  34  -0.23192202
  35   0.23156500
  36  -0.23156500
Sym=C1
Ene=   -15.0404307
Spin=Alpha
Occup=2.00000000
   1   0.00000000
   2  -0.00000000
   3   0.33184756
   4  -0.00000000
   5   0.00000000
   6   0.00007159
   7  -0.00022818
   8  -0.16543384
   9   0.28814386
  10   0.00000000
  11   0.00007159
  12  -0.00022818
  13  -0.16543384
  14  -0.28814386
  15   0.00000000
  16  -0.00000000
  17   0.00000000
  18   0.33184756
  19  -0.00000000
  20   0.00000000
  21  -0.00007159
  22   0.00022818
  23  -0.16543384
  24   0.28814386
  25   0.00000000
  26  -0.00007159
  27   0.00022818
  28  -0.16543384
  29  -0.28814386
  30   0.00000000
  31  -0.00000000
  32   0.00064830
  33   0.00064830
  34   0.00000000
  35  -0.00064830
  36  -0.00064830
Sym=C1
Ene=   -14.5358897
Spin=Alpha
Occup=2.00000000
   1  -0.02683989
   2   0.08523768
   3  -0.00000000
   4  -0.36881582
   5  -0.00000000
   6  -0.01333926
   7   0.04232909
   8  -0.20413718
   9  -0.01565744
  10  -0.00000000
  11   0.01333926
  12  -0.04232909
  13   0.20413718
  14  -0.01565744
  15  -0.00000000
  16   0.02683989
  17  -0.08523768
  18  -0.00000000
  19  -0.36881582
  20  -0.00000000
  21   0.01333926
  22  -0.04232909
  23  -0.20413718
  24  -0.01565744
  25  -0.00000000
  26  -0.01333926
  27   0.04232909
  28   0.20413718
  29  -0.01565744
  30  -0.00000000
  31  -0.28268187
  32  -0.14166012
  33   0.14166012
  34   0.28268187
  35   0.14166012
  36  -0.14166012
Sym=C1
Ene=   -14.5348695
Spin=Alpha
Occup=2.00000000
   1  -0.00000000
   2   0.00000000
   3   0.10308705
   4  -0.00000000
   5  -0.00000000
   6  -0.02317310
   7   0.07353907
   8  -0.25158730
   9  -0.20325140
  10   0.00000000
  11  -0.02317310
  12   0.07353907
  13  -0.25158730
  14   0.20325140
  15   0.00000000
  16   0.00000000
  17  -0.00000000
  18   0.10308705
  19  -0.00000000
  20   0.00000000
  21   0.02317310
  22  -0.07353907
  23  -0.25158730
  24  -0.20325140
  25   0.00000000
  26   0.02317310
  27  -0.07353907
  28  -0.25158730
  29   0.20325140
  30  -0.00000000
  31  -0.00000000
  32  -0.24502710
  33  -0.24502710
  34   0.00000000
  35   0.24502710
  36   0.24502710
Sym=C1
Ene=   -12.3940034
Spin=Alpha
Occup=2.00000000
   1  -0.00000000
   2   0.00000000
   3  -0.00000000
   4   0.00000000
   5   0.33440979
   6   0.00000000
   7  -0.00000000
   8   0.00000000
   9  -0.00000000
  10   0.33440593
  11  -0.00000000
  12   0.00000000
  13  -0.00000000
  14   0.00000000
  15   0.33440593
  16   0.00000000
  17  -0.00000000
  18   0.00000000
  19  -0.00000000
  20   0.33440979
  21   0.00000000
  22   0.00000000
  23  -0.00000000
  24  -0.00000000
  25   0.33440593
  26   0.00000000
  27  -0.00000000
  28   0.00000000
  29   0.00000000
  30   0.33440593
  31   0.00000000
  32   0.00000000
  33  -0.00000000
  34   0.00000000
  35   0.00000000
  36  -0.00000000
Sym=C1
Ene=   -11.7860383
Spin=Alpha
Occup=2.00000000
   1   0.00805059
   2  -0.01831786
   3  -0.00000000
   4   0.28178497
   5  -0.00000000
   6  -0.00402799
   7   0.00914869
   8   0.02271627
   9  -0.32112027
  10  -0.00000000
  11  -0.00402799
  12   0.00914869
  13   0.02271627
  14   0.32112027
  15  -0.00000000
  16   0.00805059
  17  -0.01831786
  18   0.00000000
  19  -0.28178497
  20  -0.00000000
  21  -0.00402799
  22   0.00914869
  23  -0.02271627
  24   0.32112027
  25  -0.00000000
  26  -0.00402799
  27   0.00914869
  28  -0.02271627
  29  -0.32112027
  30  -0.00000000
  31   0.29733170
  32  -0.14871637
  33  -0.14871637
  34   0.29733170
  35  -0.14871637
  36  -0.14871637
Sym=C1
Ene=   -11.7831075
Spin=Alpha
Occup=2.00000000
   1  -0.00000000
   2   0.00000000
   3  -0.33423294
   4  -0.00000000
   5  -0.00000000
   6   0.00697251
   7  -0.01584838
   8   0.29490832
   9  -0.02266236
  10  -0.00000000
  11  -0.00697251
  12   0.01584838
  13  -0.29490832
  14  -0.02266236
  15  -0.00000000
  16  -0.00000000
  17   0.00000000
  18   0.33423294
  19   0.00000000
  20  -0.00000000
  21   0.00697251
  22  -0.01584838
  23  -0.29490832
  24   0.02266236
  25  -0.00000000
  26  -0.00697251
  27   0.01584838
  28   0.29490832
  29   0.02266236
  30  -0.00000000
  31  -0.00000000
  32   0.25755531
  33  -0.25755531
  34  -0.00000000
  35   0.25755531
  36  -0.25755531
Sym=C1
Ene=    -7.6054350
Spin=Alpha
Occup=2.00000000
   1  -0.00000000
   2   0.00000000
   3   0.00000000
   4   0.00000000
   5  -0.00000000
   6   0.00000000
   7  -0.00000000
   8   0.00000000
   9  -0.00000000
  10  -0.46050357
  11  -0.00000000
  12   0.00000000
  13  -0.00000000
  14  -0.00000000
  15  -0.46050357
  16   0.00000000
  17  -0.00000000
  18   0.00000000
  19   0.00000000
  20   0.00000000
  21   0.00000000
  22  -0.00000000
  23  -0.00000000
  24   0.00000000
  25   0.46050357
  26   0.00000000
  27  -0.00000000
  28   0.00000000
  29   0.00000000
  30   0.46050357
  31   0.00000000
  32  -0.00000000
  33  -0.00000000
  34  -0.00000000
  35   0.00000000
  36   0.00000000
Sym=C1
Ene=    -7.6052839
Spin=Alpha
Occup=2.00000000
   1   0.00000000
   2  -0.00000000
   3   0.00000000
   4   0.00000000
   5   0.53175473
   6   0.00000000
   7  -0.00000000
   8  -0.00000000
   9  -0.00000000
  10   0.26586663
  11  -0.00000000
  12   0.00000000
  13   0.00000000
  14   0.00000000
  15  -0.26586663
  16  -0.00000000
  17   0.00000000
  18  -0.00000000
  19   0.00000000
  20  -0.53175473
  21   0.00000000
  22  -0.00000000
  23  -0.00000000
  24  -0.00000000
  25  -0.26586663
  26   0.00000000
  27  -0.00000000
  28  -0.00000000
  29   0.00000000
  30   0.26586663
  31   0.00000000
  32  -0.00000000
  33   0.00000000
  34  -0.00000000
  35   0.00000000
  36   0.00000000
Sym=C1
Ene=     7.3014532
Spin=Alpha
Occup=0.00000000
   1   0.00000000
   2  -0.00000000
   3  -0.00000000
   4   0.00000000
   5  -0.65794616
   6  -0.00000000
   7   0.00000000
   8   0.00000000
   9   0.00000000
  10   0.32897378
  11  -0.00000000
  12  -0.00000000
  13  -0.00000000
  14   0.00000000
  15   0.32897378
  16  -0.00000000
  17   0.00000000
  18  -0.00000000
  19   0.00000000
  20  -0.65794616
  21   0.00000000
  22  -0.00000000
  23  -0.00000000
  24   0.00000000
  25   0.32897378
  26   0.00000000
  27   0.00000000
  28  -0.00000000
  29   0.00000000
  30   0.32897378
  31  -0.00000000
  32   0.00000000
  33   0.00000000
  34   0.00000000
  35  -0.00000000
  36  -0.00000000
Sym=C1
Ene=     7.3019391
Spin=Alpha
Occup=0.00000000
   1   0.00000000
   2  -0.00000000
   3  -0.00000000
   4   0.00000000
   5  -0.00000000
   6  -0.00000000
   7   0.00000000
   8   0.00000000
   9   0.00000000
  10  -0.56980228
  11   0.00000000
  12  -0.00000000
  13  -0.00000000
  14   0.00000000
  15   0.56980228
  16  -0.00000000
  17   0.00000000
  18   0.00000000
  19   0.00000000
  20  -0.00000000
  21   0.00000000
  22  -0.00000000
  23   0.00000000
  24   0.00000000
  25  -0.56980228
  26   0.00000000
  27   0.00000000
  28   0.00000000
  29   0.00000000
  30   0.56980228
  31  -0.00000000
  32  -0.00000000
  33   0.00000000
  34   0.00000000
  35   0.00000000
  36   0.00000000
Sym=C1
Ene=    13.6801158
Spin=Alpha
Occup=0.00000000
   1  -0.00000000
   2   0.00000000
   3  -0.00000000
   4  -0.00000000
   5  -0.52191219
   6  -0.00000000
   7   0.00000000
   8   0.00000000
   9   0.00000000
  10   0.52192795
  11  -0.00000000
  12   0.00000000
  13   0.00000000
  14  -0.00000000
  15  -0.52192795
  16   0.00000000
  17  -0.00000000
  18  -0.00000000
  19   0.00000000
  20   0.52191219
  21   0.00000000
  22  -0.00000000
  23   0.00000000
  24   0.00000000
  25  -0.52192795
  26   0.00000000
  27  -0.00000000
  28   0.00000000
  29  -0.00000000
  30   0.52192795
  31  -0.00000000
  32  -0.00000000
  33  -0.00000000
  34   0.00000000
  35   0.00000000
  36   0.00000000
Sym=C1
Ene=    15.8032686
Spin=Alpha
Occup=0.00000000
   1   0.05265126
   2  -0.33482137
   3  -0.00000000
   4  -0.31584476
   5   0.00000000
   6   0.05266956
   7  -0.33486120
   8  -0.27399949
   9  -0.15828030
  10  -0.00000000
  11   0.05266956
  12  -0.33486120
  13  -0.27399949
  14   0.15828030
  15   0.00000000
  16   0.05265126
  17  -0.33482137
  18  -0.00000000
  19   0.31584476
  20  -0.00000000
  21   0.05266956
  22  -0.33486120
  23   0.27399949
  24   0.15828030
  25   0.00000000
  26   0.05266956
  27  -0.33486120
  28   0.27399949
  29  -0.15828030
  30  -0.00000000
  31   0.51175404
  32   0.51222750
  33   0.51222750
  34   0.51175404
  35   0.51222750
  36   0.51222750
Sym=C1
Ene=    17.6826675
Spin=Alpha
Occup=0.00000000
   1   0.00000000
   2  -0.00000000
   3   0.32489716
   4  -0.00000000
   5  -0.00000000
   6  -0.02599711
   7   0.17071972
   8   0.49778810
   9   0.09995305
  10   0.00000000
  11  -0.02599711
  12   0.17071972
  13   0.49778810
  14  -0.09995305
  15   0.00000000
  16   0.00000000
  17   0.00000000
  18   0.32489716
  19  -0.00000000
  20  -0.00000000
  21   0.02599711
  22  -0.17071972
  23   0.49778810
  24   0.09995305
  25   0.00000000
  26   0.02599711
  27  -0.17071972
  28   0.49778810
  29  -0.09995305
  30  -0.00000000
  31   0.00000000
  32  -0.56649677
  33  -0.56649677
  34  -0.00000000
  35   0.56649677
  36   0.56649677
Sym=C1
Ene=    17.6910074
Spin=Alpha
Occup=0.00000000
   1   0.02986681
   2  -0.19631968
   3  -0.00000000
   4  -0.55547118
   5  -0.00000000
   6   0.01518438
   7  -0.09963249
   8  -0.10000483
   9  -0.38262128
  10   0.00000000
  11  -0.01518438
  12   0.09963249
  13   0.10000483
  14  -0.38262128
  15   0.00000000
  16  -0.02986681
  17   0.19631968
  18  -0.00000000
  19  -0.55547118
  20  -0.00000000
  21  -0.01518438
  22   0.09963249
  23  -0.10000483
  24  -0.38262128
  25  -0.00000000
  26   0.01518438
  27  -0.09963249
  28   0.10000483
  29  -0.38262128
  30   0.00000000
  31   0.65368278
  32   0.32778752
  33  -0.32778752
  34  -0.65368278
  35  -0.32778752
  36   0.32778752
Sym=C1
Ene=    19.6219984
Spin=Alpha
Occup=0.00000000
   1  -0.12026695
   2   0.75447805
   3   0.00000000
   4   0.06375244
   5   0.00000000
   6   0.12033072
   7  -0.75483841
   8  -0.05470222
   9  -0.03040885
  10  -0.00000000
  11  -0.12033072
  12   0.75483841
  13   0.05470222
  14  -0.03040885
  15   0.00000000
  16   0.12026695
  17  -0.75447805
  18  -0.00000000
  19   0.06375244
  20  -0.00000000
  21  -0.12033072
  22   0.75483841
  23  -0.05470222
  24  -0.03040885
  25  -0.00000000
  26   0.12033072
  27  -0.75483841
  28   0.05470222
  29  -0.03040885
  30   0.00000000
  31  -0.45004655
  32   0.44887158
  33  -0.44887158
  34   0.45004655
  35  -0.44887158
  36   0.44887158
Sym=C1
Ene=    19.9712323
Spin=Alpha
Occup=0.00000000
   1  -0.00000000
   2   0.00000000
   3  -0.43045802
   4  -0.00000000
   5   0.00000000
   6  -0.14100054
   7   0.91144689
   8   0.07768792
   9  -0.20383304
  10  -0.00000000
  11   0.14100054
  12  -0.91144689
  13  -0.07768792
  14  -0.20383304
  15  -0.00000000
  16  -0.00000000
  17   0.00000000
  18   0.43045802
  19   0.00000000
  20  -0.00000000
  21  -0.14100054
  22   0.91144689
  23  -0.07768792
  24   0.20383304
  25   0.00000000
  26   0.14100054
  27  -0.91144689
  28   0.07768792
  29   0.20383304
  30  -0.00000000
  31  -0.00000000
  32  -0.40637226
  33   0.40637226
  34  -0.00000000
  35  -0.40637226
  36   0.40637226
Sym=C1
Ene=    19.9780904
Spin=Alpha
Occup=0.00000000
   1  -0.16285892
   2   1.05291672
   3   0.00000000
   4  -0.04084542
   5   0.00000000
   6   0.08140858
   7  -0.52627961
   8   0.20440127
   9  -0.31288485
  10  -0.00000000
  11   0.08140858
  12  -0.52627961
  13   0.20440127
  14   0.31288485
  15   0.00000000
  16  -0.16285892
  17   1.05291672
  18  -0.00000000
  19   0.04084542
  20  -0.00000000
  21   0.08140858
  22  -0.52627961
  23  -0.20440127
  24   0.31288485
  25  -0.00000000
  26   0.08140858
  27  -0.52627961
  28  -0.20440127
  29  -0.31288485
  30   0.00000000
  31  -0.46887497
  32   0.23423058
  33   0.23423058
  34  -0.46887497
  35   0.23423058
  36   0.23423058
Sym=C1
Ene=    24.0763323
Spin=Alpha
Occup=0.00000000
   1  -0.00000000
   2   0.00000000
   3   0.22739034
   4  -0.00000000
   5  -0.00000000
   6   0.02418058
   7  -0.17463476
   8   0.55009392
   9   0.44837637
  10   0.00000000
  11  -0.02418058
  12   0.17463476
  13  -0.55009392
  14   0.44837637
  15   0.00000000
  16  -0.00000000
  17   0.00000000
  18  -0.22739034
  19   0.00000000
  20  -0.00000000
  21   0.02418058
  22  -0.17463476
  23  -0.55009392
  24  -0.44837637
  25  -0.00000000
  26  -0.02418058
  27   0.17463476
  28   0.55009392
  29  -0.44837637
  30  -0.00000000
  31   0.00000000
  32  -0.48199916
  33   0.48199916
  34   0.00000000
  35  -0.48199916
  36   0.48199916
Sym=C1
Ene=    24.0768654
Spin=Alpha
Occup=0.00000000
   1  -0.02768667
   2   0.19993747
   3  -0.00000000
   4  -0.80917618
   5   0.00000000
   6   0.01389316
   7  -0.10035430
   8   0.44815825
   9   0.03230198
  10  -0.00000000
  11   0.01389316
  12  -0.10035430
  13   0.44815825
  14  -0.03230198
  15   0.00000000
  16  -0.02768667
  17   0.19993747
  18   0.00000000
  19   0.80917618
  20  -0.00000000
  21   0.01389316
  22  -0.10035430
  23  -0.44815825
  24  -0.03230198
  25   0.00000000
  26   0.01389316
  27  -0.10035430
  28  -0.44815825
  29   0.03230198
  30  -0.00000000
  31   0.55763005
  32  -0.27825341
  33  -0.27825341
  34   0.55763005
  35  -0.27825341
  36  -0.27825341
Sym=C1
Ene=    24.3742651
Spin=Alpha
Occup=0.00000000
   1   0.09592108
   2  -0.68757890
   3  -0.00000000
   4  -0.07458942
   5  -0.00000000
   6   0.04775463
   7  -0.34239460
   8  -0.39438866
   9   0.60781920
  10   0.00000000
  11  -0.04775463
  12   0.34239460
  13   0.39438866
  14   0.60781920
  15  -0.00000000
  16  -0.09592108
  17   0.68757890
  18  -0.00000000
  19  -0.07458942
  20   0.00000000
  21  -0.04775463
  22   0.34239460
  23  -0.39438866
  24   0.60781920
  25  -0.00000000
  26   0.04775463
  27  -0.34239460
  28   0.39438866
  29   0.60781920
  30   0.00000000
  31   0.30876047
  32   0.15382701
  33  -0.15382701
  34  -0.30876047
  35  -0.15382701
  36   0.15382701
Sym=C1
Ene=    24.3755503
Spin=Alpha
Occup=0.00000000
   1   0.00000000
   2  -0.00000000
   3   0.83550827
   4  -0.00000000
   5  -0.00000000
   6   0.08295009
   7  -0.59462668
   8   0.15280231
   9  -0.39421805
  10   0.00000000
  11   0.08295009
  12  -0.59462668
  13   0.15280231
  14   0.39421805
  15  -0.00000000
  16  -0.00000000
  17   0.00000000
  18   0.83550827
  19  -0.00000000
  20   0.00000000
  21  -0.08295009
  22   0.59462668
  23   0.15280231
  24  -0.39421805
  25  -0.00000000
  26  -0.08295009
  27   0.59462668
  28   0.15280231
  29   0.39421805
  30   0.00000000
  31   0.00000000
  32   0.26712609
  33   0.26712609
  34  -0.00000000
  35  -0.26712609
  36  -0.26712609
Sym=C1
Ene=    29.5166914
Spin=Alpha
Occup=0.00000000
   1  -0.00000000
   2   0.00000000
   3   0.75552589
   4  -0.00000000
   5  -0.00000000
   6   0.00001245
   7  -0.00007296
   8   0.37752803
   9  -0.65452041
  10   0.00000000
  11  -0.00001245
  12   0.00007296
  13  -0.37752803
  14  -0.65452041
  15  -0.00000000
  16   0.00000000
  17  -0.00000000
  18  -0.75552589
  19  -0.00000000
  20   0.00000000
  21   0.00001245
  22  -0.00007296
  23  -0.37752803
  24   0.65452041
  25  -0.00000000
  26  -0.00001245
  27   0.00007296
  28   0.37752803
  29   0.65452041
  30  -0.00000000
  31   0.00000000
  32   0.00035005
  33  -0.00035005
  34  -0.00000000
  35   0.00035005
  36  -0.00035005
Sym=C1
Ene=    31.2710025
Spin=Alpha
Occup=0.00000000
   1   0.06083159
   2  -0.45916496
   3   0.00000000
   4   0.67445468
   5  -0.00000000
   6  -0.06090670
   7   0.45980373
   8  -0.58376424
   9  -0.33745924
  10   0.00000000
  11   0.06090670
  12  -0.45980373
  13   0.58376424
  14  -0.33745924
  15   0.00000000
  16  -0.06083159
  17   0.45916496
  18  -0.00000000
  19   0.67445468
  20  -0.00000000
  21   0.06090670
  22  -0.45980373
  23  -0.58376424
  24  -0.33745924
  25   0.00000000
  26  -0.06090670
  27   0.45980373
  28   0.58376424
  29  -0.33745924
  30  -0.00000000
  31  -0.28050044
  32   0.28006021
  33  -0.28006021
  34   0.28050044
  35  -0.28006021
  36   0.28006021

