[Molden Format]
[Atoms] Angs
  C   1   6    0.00000000    0.00000000    0.00000000
  H   2   1    1.18693526    1.18693526   -1.18693526
  H   3   1   -1.18693526   -1.18693526   -1.18693526
  H   4   1    1.18693526   -1.18693526    1.18693526
  H   5   1   -1.18693526    1.18693526    1.18693526
[5D]
[GTO]
   1
 s  3
 7.16168370e+01  1.54328970e-01
 1.30450960e+01  5.35328140e-01
 3.53051220e+00  4.44634540e-01
 s  3
 2.94124940e+00  -9.99672300e-02
 6.83483100e-01  3.99512830e-01
 2.22289900e-01  7.00115470e-01
 p  3
 2.94124940e+00  1.55916270e-01
 6.83483100e-01  6.07683720e-01
 2.22289900e-01  3.91957390e-01

   2
 s  3
 3.42525091e+00  1.54328970e-01
 6.23913730e-01  5.35328140e-01
 1.68855400e-01  4.44634540e-01

   3
 s  3
 3.42525091e+00  1.54328970e-01
 6.23913730e-01  5.35328140e-01
 1.68855400e-01  4.44634540e-01

   4
 s  3
 3.42525091e+00  1.54328970e-01
 6.23913730e-01  5.35328140e-01
 1.68855400e-01  4.44634540e-01

   5
 s  3
 3.42525091e+00  1.54328970e-01
 6.23913730e-01  5.35328140e-01
 1.68855400e-01  4.44634540e-01

[MO]
Sym=C1
Ene=  -300.1446932
Spin=Alpha
Occup=2.00000000
   1  -0.99194843
   2  -0.03812670
   3  -0.00000000
   4  -0.00000000
   5  -0.00000000
   6   0.00694779
   7   0.00694779
   8   0.00694779
   9   0.00694779
Sym=C1
Ene=   -24.7505642
Spin=Alpha
Occup=2.00000000
   1  -0.22124434
   2   0.62894724
   3  -0.00000000
   4   0.00000000
   5  -0.00000000
   6   0.18070622
   7   0.18070622
   8   0.18070622
   9   0.18070622
Sym=C1
Ene=   -14.1108486
Spin=Alpha
Occup=2.00000000
   1  -0.00000000
   2  -0.00000000
   3  -0.09103036
   4   0.54927728
   5   0.12833711
   6   0.17398576
   7  -0.30934899
   8  -0.26999979
   9   0.40536303
Sym=C1
Ene=   -14.1108486
Spin=Alpha
Occup=2.00000000
   1  -0.00000000
   2   0.00000000
   3  -0.54058947
   4  -0.12207032
   5   0.13901202
   6  -0.42278062
   7   0.27615806
   8  -0.14740471
   9   0.29402727
Sym=C1
Ene=   -14.1108486
Spin=Alpha
Occup=2.00000000
   1   0.00000000
   2  -0.00000000
   3  -0.16105582
   4   0.09927627
   5  -0.53913609
   6   0.25174528
   7   0.31690710
   8  -0.42161849
   9  -0.14703389
Sym=C1
Ene=    19.4528153
Spin=Alpha
Occup=0.00000000
   1  -0.00000000
   2   0.00000000
   3  -0.09575851
   4   1.07487155
   5  -0.22806529
   6  -0.66938723
   7   0.41646023
   8   0.77558450
   9  -0.52265750
Sym=C1
Ene=    19.4528153
Spin=Alpha
Occup=0.00000000
   1   0.00000000
   2  -0.00000000
   3  -1.06299564
   4  -0.03265628
   5   0.29241436
   6   0.76969062
   7  -0.44539978
   8   0.40918359
   9  -0.73347443
Sym=C1
Ene=    19.4528153
Spin=Alpha
Occup=0.00000000
   1   0.00000000
   2  -0.00000000
   3  -0.27821376
   4  -0.24518776
   5  -1.03875521
   6  -0.28576654
   7  -0.86622476
   8   0.59430876
   9   0.55768254
Sym=C1
Ene=    20.5079753
Spin=Alpha
Occup=0.00000000
   1  -0.25187319
   2   1.62003754
   3  -0.00000000
   4  -0.00000000
   5  -0.00000000
   6  -0.66442178
   7  -0.66442178
   8  -0.66442178
   9  -0.66442178

