 argument  1 = O2.nw



============================== echo of input deck ==============================
start O2
echo

geometry units angstroms
O          0.00000        0.00000        0.00000
O          1.20800        0.00000        0.00000
end

basis "ao basis" SPHERICAL
O    S
    130.7093200              0.15432897
     23.8088610              0.53532814
      6.4436083              0.44463454
O    SP
      5.0331513             -0.09996723             0.15591627
      1.1695961              0.39951283             0.60768372
      0.3803890              0.70011547             0.39195739
end

scf
  rhf
  print "ao2eints"
  #triplet
end

task scf
================================================================================


                                         
                                         


              Northwest Computational Chemistry Package (NWChem) 6.6
              ------------------------------------------------------


                    Environmental Molecular Sciences Laboratory
                       Pacific Northwest National Laboratory
                                Richland, WA 99352

                              Copyright (c) 1994-2015
                       Pacific Northwest National Laboratory
                            Battelle Memorial Institute

             NWChem is an open-source computational chemistry package
                        distributed under the terms of the
                      Educational Community License (ECL) 2.0
             A copy of the license is included with this distribution
                              in the LICENSE.TXT file

                                  ACKNOWLEDGMENT
                                  --------------

            This software and its documentation were developed at the
            EMSL at Pacific Northwest National Laboratory, a multiprogram
            national laboratory, operated for the U.S. Department of Energy
            by Battelle under Contract Number DE-AC05-76RL01830. Support
            for this work was provided by the Department of Energy Office
            of Biological and Environmental Research, Office of Basic
            Energy Sciences, and the Office of Advanced Scientific Computing.


           Job information
           ---------------

    hostname        = avo
    program         = nwchem
    date            = Sat Mar 12 23:22:33 2016

    compiled        = Пт_ноя_20_00:03:40_2015
    source          = /opt/nwchem/nwchem-6.6
    nwchem branch   = 6.6
    nwchem revision = 27746
    ga revision     = 10594
    input           = O2.nw
    prefix          = O2.
    data base       = ./O2.db
    status          = startup
    nproc           =        1
    time left       =     -1s



           Memory information
           ------------------

    heap     =   46991804 doubles =    358.5 Mbytes
    stack    =   46991809 doubles =    358.5 Mbytes
    global   =   93983616 doubles =    717.0 Mbytes (distinct from heap & stack)
    total    =  187967229 doubles =   1434.1 Mbytes
    verify   = yes
    hardfail = no 


           Directory information
           ---------------------

  0 permanent = .
  0 scratch   = .




                                NWChem Input Module
                                -------------------



 Scaling coordinates for geometry "geometry" by  1.889725989
 (inverse scale =  0.529177249)

 ORDER OF PRIMARY AXIS IS BEING SET TO 4
 D4H symmetry detected

          ------
          auto-z
          ------


                             Geometry "geometry" -> ""
                             -------------------------

 Output coordinates in angstroms (scale by  1.889725989 to convert to a.u.)

  No.       Tag          Charge          X              Y              Z
 ---- ---------------- ---------- -------------- -------------- --------------
    1 O                    8.0000     0.00000000     0.00000000    -0.60400000
    2 O                    8.0000     0.00000000     0.00000000     0.60400000

      Atomic Mass 
      ----------- 

      O                 15.994910


 Effective nuclear repulsion energy (a.u.)      28.0358807417

            Nuclear Dipole moment (a.u.) 
            ----------------------------
        X                 Y               Z
 ---------------- ---------------- ----------------
     0.0000000000     0.0000000000     0.0000000000

      Symmetry information
      --------------------

 Group name             D4h       
 Group number             28
 Group order              16
 No. of unique centers     1

      Symmetry unique atoms

     1



                                Z-matrix (autoz)
                                -------- 

 Units are Angstrom for bonds and degrees for angles

      Type          Name      I     J     K     L     M      Value
      ----------- --------  ----- ----- ----- ----- ----- ----------
    1 Stretch                  1     2                       1.20800


            XYZ format geometry
            -------------------
     2
 geometry
 O                     0.00000000     0.00000000    -0.60400000
 O                     0.00000000     0.00000000     0.60400000

 ==============================================================================
                                internuclear distances
 ------------------------------------------------------------------------------
       center one      |      center two      | atomic units |  angstroms
 ------------------------------------------------------------------------------
    2 O                |   1 O                |     2.28279  |     1.20800
 ------------------------------------------------------------------------------
                         number of included internuclear distances:          1
 ==============================================================================



                      Basis "ao basis" -> "" (spherical)
                      -----
  O (Oxygen)
  ----------
            Exponent  Coefficients 
       -------------- ---------------------------------------------------------
  1 S  1.30709320E+02  0.154329
  1 S  2.38088610E+01  0.535328
  1 S  6.44360830E+00  0.444635

  2 S  5.03315130E+00 -0.099967
  2 S  1.16959610E+00  0.399513
  2 S  3.80389000E-01  0.700115

  3 P  5.03315130E+00  0.155916
  3 P  1.16959610E+00  0.607684
  3 P  3.80389000E-01  0.391957



 Summary of "ao basis" -> "" (spherical)
 ------------------------------------------------------------------------------
       Tag                 Description            Shells   Functions and Types
 ---------------- ------------------------------  ------  ---------------------
 O                       user specified              3        5   2s1p


                                 NWChem SCF Module
                                 -----------------



  ao basis        = "ao basis"
  functions       =    10
  atoms           =     2
  closed shells   =     8
  open shells     =     0
  charge          =   0.00
  wavefunction    = RHF 
  input vectors   = atomic
  output vectors  = ./O2.movecs
  use symmetry    = T
  symmetry adapt  = T


 Summary of "ao basis" -> "ao basis" (spherical)
 ------------------------------------------------------------------------------
       Tag                 Description            Shells   Functions and Types
 ---------------- ------------------------------  ------  ---------------------
 O                       user specified              3        5   2s1p


      Symmetry analysis of basis
      --------------------------

        a1g         3
        a1u         0
        a2g         0
        a2u         3
        b1g         0
        b1u         0
        b2g         0
        b2u         0
        eg          2
        eu          2

 ====================================
 Begin all 2-e integrals
 ====================================
 ao     1    1    1    1          4.78506540
 ao     1    1    1    2          0.74138035
 ao     1    1    1    7          0.07191315
 ao     1    1    1   10         -0.12178715
 ao     1    1    2    1          0.74138035
 ao     1    1    2    2          1.11894687
 ao     1    1    2    6          0.01049044
 ao     1    1    2    7          0.21611610
 ao     1    1    2   10         -0.29338546
 ao     1    1    3    3          1.11581381
 ao     1    1    4    4          1.11581381
 ao     1    1    5    5          1.11581381
 ao     1    1    5    6          0.01766758
 ao     1    1    5    7          0.21441208
 ao     1    1    3    8          0.09912973
 ao     1    1    4    9          0.09912973
 ao     1    1    5   10         -0.25326472
 ao     1    1    6    2          0.01049044
 ao     1    1    6    5          0.01766758
 ao     1    1    6    6          0.43806064
 ao     1    1    6    7          0.10369068
 ao     1    1    6   10         -0.00974683
 ao     1    1    7    1          0.07191315
 ao     1    1    7    2          0.21611610
 ao     1    1    7    5          0.21441208
 ao     1    1    7    6          0.10369068
 ao     1    1    7    7          0.43687371
 ao     1    1    7   10         -0.12073127
 ao     1    1   10    1         -0.12178715
 ao     1    1   10    2         -0.29338546
 ao     1    1    8    3          0.09912973
 ao     1    1    9    4          0.09912973
 ao     1    1   10    5         -0.25326472
 ao     1    1   10    6         -0.00974683
 ao     1    1   10    7         -0.12073127
 ao     1    1    8    8          0.41316224
 ao     1    1    9    9          0.41316224
 ao     1    1   10   10          0.48345690
 ao     1    2    1    1          0.74138035
 ao     1    2    1    2          0.13687339
 ao     1    2    1    7          0.01320127
 ao     1    2    1   10         -0.02233807
 ao     1    2    2    1          0.13687339
 ao     1    2    2    2          0.25663339
 ao     1    2    2    6          0.00248313
 ao     1    2    2    7          0.05037034
 ao     1    2    2   10         -0.06811679
 ao     1    2    3    3          0.25668399
 ao     1    2    4    4          0.25668399
 ao     1    2    5    5          0.25668399
 ao     1    2    5    6          0.00418199
 ao     1    2    5    7          0.05049256
 ao     1    2    3    8          0.02335646
 ao     1    2    4    9          0.02335646
 ao     1    2    5   10         -0.05954394
 ao     1    2    6    2          0.00248313
 ao     1    2    6    5          0.00418199
 ao     1    2    6    6          0.10369068
 ao     1    2    6    7          0.02454399
 ao     1    2    6   10         -0.00230711
 ao     1    2    7    1          0.01320127
 ao     1    2    7    2          0.05037034
 ao     1    2    7    5          0.05049256
 ao     1    2    7    6          0.02454399
 ao     1    2    7    7          0.10332373
 ao     1    2    7   10         -0.02843327
 ao     1    2   10    1         -0.02233807
 ao     1    2   10    2         -0.06811679
 ao     1    2    8    3          0.02335646
 ao     1    2    9    4          0.02335646
 ao     1    2   10    5         -0.05954394
 ao     1    2   10    6         -0.00230711
 ao     1    2   10    7         -0.02843327
 ao     1    2    8    8          0.09779491
 ao     1    2    9    9          0.09779491
 ao     1    2   10   10          0.11419384
 ao     1    3    1    3          0.02447741
 ao     1    4    1    4          0.02447741
 ao     1    5    1    5          0.02447741
 ao     1    5    1    7          0.00085059
 ao     1    3    1    8          0.00035377
 ao     1    4    1    9          0.00035377
 ao     1    5    1   10         -0.00132627
 ao     1    3    2    3          0.03780861
 ao     1    4    2    4          0.03780861
 ao     1    5    2    5          0.03780861
 ao     1    5    2    6          0.00024494
 ao     1    5    2    7          0.00492129
 ao     1    3    2    8          0.00221860
 ao     1    4    2    9          0.00221860
 ao     1    5    2   10         -0.00667592
 ao     1    3    3    1          0.02447741
 ao     1    4    4    1          0.02447741
 ao     1    5    5    1          0.02447741
 ao     1    3    3    2          0.03780861
 ao     1    4    4    2          0.03780861
 ao     1    5    5    2          0.03780861
 ao     1    3    3    6          0.00000526
 ao     1    4    4    6          0.00000526
 ao     1    5    5    6          0.00041158
 ao     1    3    3    7          0.00446917
 ao     1    4    4    7          0.00446917
 ao     1    5    5    7          0.00813182
 ao     1    3    3   10         -0.00691403
 ao     1    3    5    8          0.00180058
 ao     1    4    4   10         -0.00691403
 ao     1    4    5    9          0.00180058
 ao     1    5    3    8          0.00180058
 ao     1    5    4    9          0.00180058
 ao     1    5    5   10         -0.01172507
 ao     1    5    6    2          0.00024494
 ao     1    3    6    3          0.00000526
 ao     1    4    6    4          0.00000526
 ao     1    5    6    5          0.00041158
 ao     1    5    6    6          0.00974683
 ao     1    5    6    7          0.00230711
 ao     1    3    6    8          0.00021687
 ao     1    4    6    9          0.00021687
 ao     1    5    6   10         -0.00043373
 ao     1    5    7    1          0.00085059
 ao     1    5    7    2          0.00492129
 ao     1    3    7    3          0.00446917
 ao     1    4    7    4          0.00446917
 ao     1    5    7    5          0.00813182
 ao     1    5    7    6          0.00230711
 ao     1    5    7    7          0.00943774
 ao     1    3    7    8          0.00267499
 ao     1    4    7    9          0.00267499
 ao     1    5    7   10         -0.00491521
 ao     1    3    8    1          0.00035377
 ao     1    4    9    1          0.00035377
 ao     1    5   10    1         -0.00132627
 ao     1    3    8    2          0.00221860
 ao     1    4    9    2          0.00221860
 ao     1    5   10    2         -0.00667592
 ao     1    3    8    5          0.00180058
 ao     1    3   10    3         -0.00691403
 ao     1    4    9    5          0.00180058
 ao     1    4   10    4         -0.00691403
 ao     1    5    8    3          0.00180058
 ao     1    5    9    4          0.00180058
 ao     1    5   10    5         -0.01172507
 ao     1    3    8    6          0.00021687
 ao     1    4    9    6          0.00021687
 ao     1    5   10    6         -0.00043373
 ao     1    3    8    7          0.00267499
 ao     1    4    9    7          0.00267499
 ao     1    5   10    7         -0.00491521
 ao     1    3    8   10         -0.00154526
 ao     1    3   10    8         -0.00154526
 ao     1    4    9   10         -0.00154526
 ao     1    4   10    9         -0.00154526
 ao     1    5    8    8          0.00809821
 ao     1    5    9    9          0.00809821
 ao     1    5   10   10          0.01205284
 ao     1    7    1    1          0.07191315
 ao     1    7    1    2          0.01320127
 ao     1    7    1    5          0.00085059
 ao     1    7    1    7          0.00130515
 ao     1    7    1   10         -0.00220452
 ao     1    7    2    1          0.01320127
 ao     1    7    2    2          0.02472165
 ao     1    7    2    5          0.00161108
 ao     1    7    2    6          0.00025184
 ao     1    7    2    7          0.00509015
 ao     1    7    2   10         -0.00688326
 ao     1    7    5    1          0.00085059
 ao     1    7    5    2          0.00161108
 ao     1    7    3    3          0.02464722
 ao     1    7    4    4          0.02464722
 ao     1    7    5    5          0.02487516
 ao     1    7    5    6          0.00042408
 ao     1    7    5    7          0.00525625
 ao     1    7    3    8          0.00233605
 ao     1    7    4    9          0.00233605
 ao     1    7    5   10         -0.00629602
 ao     1    7    6    2          0.00025184
 ao     1    7    6    5          0.00042408
 ao     1    7    6    6          0.01049044
 ao     1    7    6    7          0.00248313
 ao     1    7    6   10         -0.00024494
 ao     1    7    7    1          0.00130515
 ao     1    7    7    2          0.00509015
 ao     1    7    7    5          0.00525625
 ao     1    7    7    6          0.00248313
 ao     1    7    7    7          0.01043477
 ao     1    7    7   10         -0.00298915
 ao     1    7   10    1         -0.00220452
 ao     1    7   10    2         -0.00688326
 ao     1    7    8    3          0.00233605
 ao     1    7    9    4          0.00233605
 ao     1    7   10    5         -0.00629602
 ao     1    7   10    6         -0.00024494
 ao     1    7   10    7         -0.00298915
 ao     1    7    8    8          0.00983400
 ao     1    7    9    9          0.00983400
 ao     1    7   10   10          0.01161584
 ao     1   10    1    1         -0.12178715
 ao     1   10    1    2         -0.02233807
 ao     1    8    1    3          0.00035377
 ao     1    9    1    4          0.00035377
 ao     1   10    1    5         -0.00132627
 ao     1   10    1    7         -0.00220452
 ao     1    8    1    8          0.00000580
 ao     1    9    1    9          0.00000580
 ao     1   10    1   10          0.00372419
 ao     1   10    2    1         -0.02233807
 ao     1   10    2    2         -0.04176854
 ao     1    8    2    3          0.00067392
 ao     1    9    2    4          0.00067392
 ao     1   10    2    5         -0.00252582
 ao     1   10    2    6         -0.00042408
 ao     1   10    2    7         -0.00857297
 ao     1    8    2    8          0.00004977
 ao     1    9    2    9          0.00004977
 ao     1   10    2   10          0.01159375
 ao     1    8    3    1          0.00035377
 ao     1    9    4    1          0.00035377
 ao     1   10    5    1         -0.00132627
 ao     1    8    3    2          0.00067392
 ao     1    9    4    2          0.00067392
 ao     1   10    5    2         -0.00252582
 ao     1    8    3    5          0.00010184
 ao     1    8    5    3          0.00010184
 ao     1    9    4    5          0.00010184
 ao     1    9    5    4          0.00010184
 ao     1   10    3    3         -0.04163687
 ao     1   10    4    4         -0.04163687
 ao     1   10    5    5         -0.04203903
 ao     1    8    3    6          0.00000013
 ao     1    9    4    6          0.00000013
 ao     1   10    5    6         -0.00071414
 ao     1    8    3    7          0.00009253
 ao     1    9    4    7          0.00009253
 ao     1   10    5    7         -0.00883719
 ao     1    8    3   10         -0.00014099
 ao     1    8    5    8          0.00004572
 ao     1    9    4   10         -0.00014099
 ao     1    9    5    9          0.00004572
 ao     1   10    3    8         -0.00393576
 ao     1   10    4    9         -0.00393576
 ao     1   10    5   10          0.01057617
 ao     1   10    6    2         -0.00042408
 ao     1    8    6    3          0.00000013
 ao     1    9    6    4          0.00000013
 ao     1   10    6    5         -0.00071414
 ao     1   10    6    6         -0.01766758
 ao     1   10    6    7         -0.00418199
 ao     1    8    6    8          0.00000526
 ao     1    9    6    9          0.00000526
 ao     1   10    6   10          0.00041158
 ao     1   10    7    1         -0.00220452
 ao     1   10    7    2         -0.00857297
 ao     1    8    7    3          0.00009253
 ao     1    9    7    4          0.00009253
 ao     1   10    7    5         -0.00883719
 ao     1   10    7    6         -0.00418199
 ao     1   10    7    7         -0.01757494
 ao     1    8    7    8          0.00006366
 ao     1    9    7    9          0.00006366
 ao     1   10    7   10          0.00502432
 ao     1    8    8    1          0.00000580
 ao     1    9    9    1          0.00000580
 ao     1   10   10    1          0.00372419
 ao     1    8    8    2          0.00004977
 ao     1    9    9    2          0.00004977
 ao     1   10   10    2          0.01159375
 ao     1    8    8    5          0.00004572
 ao     1    8   10    3         -0.00014099
 ao     1    9    9    5          0.00004572
 ao     1    9   10    4         -0.00014099
 ao     1   10    8    3         -0.00393576
 ao     1   10    9    4         -0.00393576
 ao     1   10   10    5          0.01057617
 ao     1    8    8    6          0.00000526
 ao     1    9    9    6          0.00000526
 ao     1   10   10    6          0.00041158
 ao     1    8    8    7          0.00006366
 ao     1    9    9    7          0.00006366
 ao     1   10   10    7          0.00502432
 ao     1    8    8   10         -0.00003845
 ao     1    8   10    8         -0.00003845
 ao     1    9    9   10         -0.00003845
 ao     1    9   10    9         -0.00003845
 ao     1   10    8    8         -0.01656645
 ao     1   10    9    9         -0.01656645
 ao     1   10   10   10         -0.01955770
 ao     2    1    1    1          0.74138035
 ao     2    1    1    2          0.13687339
 ao     2    1    1    7          0.01320127
 ao     2    1    1   10         -0.02233807
 ao     2    1    2    1          0.13687339
 ao     2    1    2    2          0.25663339
 ao     2    1    2    6          0.00248313
 ao     2    1    2    7          0.05037034
 ao     2    1    2   10         -0.06811679
 ao     2    1    3    3          0.25668399
 ao     2    1    4    4          0.25668399
 ao     2    1    5    5          0.25668399
 ao     2    1    5    6          0.00418199
 ao     2    1    5    7          0.05049256
 ao     2    1    3    8          0.02335646
 ao     2    1    4    9          0.02335646
 ao     2    1    5   10         -0.05954394
 ao     2    1    6    2          0.00248313
 ao     2    1    6    5          0.00418199
 ao     2    1    6    6          0.10369068
 ao     2    1    6    7          0.02454399
 ao     2    1    6   10         -0.00230711
 ao     2    1    7    1          0.01320127
 ao     2    1    7    2          0.05037034
 ao     2    1    7    5          0.05049256
 ao     2    1    7    6          0.02454399
 ao     2    1    7    7          0.10332373
 ao     2    1    7   10         -0.02843327
 ao     2    1   10    1         -0.02233807
 ao     2    1   10    2         -0.06811679
 ao     2    1    8    3          0.02335646
 ao     2    1    9    4          0.02335646
 ao     2    1   10    5         -0.05954394
 ao     2    1   10    6         -0.00230711
 ao     2    1   10    7         -0.02843327
 ao     2    1    8    8          0.09779491
 ao     2    1    9    9          0.09779491
 ao     2    1   10   10          0.11419384
 ao     2    2    1    1          1.11894687
 ao     2    2    1    2          0.25663339
 ao     2    2    1    7          0.02472165
 ao     2    2    1   10         -0.04176854
 ao     2    2    2    1          0.25663339
 ao     2    2    2    2          0.81720632
 ao     2    2    2    6          0.01043477
 ao     2    2    2    7          0.18232335
 ao     2    2    2   10         -0.23764977
 ao     2    2    3    3          0.81702261
 ao     2    2    4    4          0.81702261
 ao     2    2    5    5          0.81702261
 ao     2    2    5    6          0.01757494
 ao     2    2    5    7          0.19291831
 ao     2    2    3    8          0.08988242
 ao     2    2    4    9          0.08988242
 ao     2    2    5   10         -0.21998570
 ao     2    2    6    2          0.01043477
 ao     2    2    6    5          0.01757494
 ao     2    2    6    6          0.43687371
 ao     2    2    6    7          0.10332373
 ao     2    2    6   10         -0.00943774
 ao     2    2    7    1          0.02472165
 ao     2    2    7    2          0.18232335
 ao     2    2    7    5          0.19291831
 ao     2    2    7    6          0.10332373
 ao     2    2    7    7          0.42797833
 ao     2    2    7   10         -0.10730956
 ao     2    2   10    1         -0.04176854
 ao     2    2   10    2         -0.23764977
 ao     2    2    8    3          0.08988242
 ao     2    2    9    4          0.08988242
 ao     2    2   10    5         -0.21998570
 ao     2    2   10    6         -0.00943774
 ao     2    2   10    7         -0.10730956
 ao     2    2    8    8          0.41055257
 ao     2    2    9    9          0.41055257
 ao     2    2   10   10          0.46233106
 ao     2    3    1    3          0.03780861
 ao     2    4    1    4          0.03780861
 ao     2    5    1    5          0.03780861
 ao     2    5    1    7          0.00161108
 ao     2    3    1    8          0.00067392
 ao     2    4    1    9          0.00067392
 ao     2    5    1   10         -0.00252582
 ao     2    3    2    3          0.18051839
 ao     2    4    2    4          0.18051839
 ao     2    5    2    5          0.18051839
 ao     2    5    2    6          0.00298915
 ao     2    5    2    7          0.03939907
 ao     2    3    2    8          0.01821809
 ao     2    4    2    9          0.01821809
 ao     2    5    2   10         -0.04906431
 ao     2    3    3    1          0.03780861
 ao     2    4    4    1          0.03780861
 ao     2    5    5    1          0.03780861
 ao     2    3    3    2          0.18051839
 ao     2    4    4    2          0.18051839
 ao     2    5    5    2          0.18051839
 ao     2    3    3    6          0.00006366
 ao     2    4    4    6          0.00006366
 ao     2    5    5    6          0.00502432
 ao     2    3    3    7          0.02691423
 ao     2    4    4    7          0.02691423
 ao     2    5    5    7          0.06057815
 ao     2    3    3   10         -0.03889577
 ao     2    3    5    8          0.01689170
 ao     2    4    4   10         -0.03889577
 ao     2    4    5    9          0.01689170
 ao     2    5    3    8          0.01689170
 ao     2    5    4    9          0.01689170
 ao     2    5    5   10         -0.07848820
 ao     2    5    6    2          0.00298915
 ao     2    3    6    3          0.00006366
 ao     2    4    6    4          0.00006366
 ao     2    5    6    5          0.00502432
 ao     2    5    6    6          0.12073127
 ao     2    5    6    7          0.02843327
 ao     2    3    6    8          0.00267499
 ao     2    4    6    9          0.00267499
 ao     2    5    6   10         -0.00491521
 ao     2    5    7    1          0.00161108
 ao     2    5    7    2          0.03939907
 ao     2    3    7    3          0.02691423
 ao     2    4    7    4          0.02691423
 ao     2    5    7    5          0.06057815
 ao     2    5    7    6          0.02843327
 ao     2    5    7    7          0.10730956
 ao     2    3    7    8          0.03088541
 ao     2    4    7    9          0.03088541
 ao     2    5    7   10         -0.04461968
 ao     2    3    8    1          0.00067392
 ao     2    4    9    1          0.00067392
 ao     2    5   10    1         -0.00252582
 ao     2    3    8    2          0.01821809
 ao     2    4    9    2          0.01821809
 ao     2    5   10    2         -0.04906431
 ao     2    3    8    5          0.01689170
 ao     2    3   10    3         -0.03889577
 ao     2    4    9    5          0.01689170
 ao     2    4   10    4         -0.03889577
 ao     2    5    8    3          0.01689170
 ao     2    5    9    4          0.01689170
 ao     2    5   10    5         -0.07848820
 ao     2    3    8    6          0.00267499
 ao     2    4    9    6          0.00267499
 ao     2    5   10    6         -0.00491521
 ao     2    3    8    7          0.03088541
 ao     2    4    9    7          0.03088541
 ao     2    5   10    7         -0.04461968
 ao     2    3    8   10         -0.01550668
 ao     2    3   10    8         -0.01550668
 ao     2    4    9   10         -0.01550668
 ao     2    4   10    9         -0.01550668
 ao     2    5    8    8          0.09832043
 ao     2    5    9    9          0.09832043
 ao     2    5   10   10          0.12499976
 ao     2    6    1    1          0.01049044
 ao     2    6    1    2          0.00248313
 ao     2    6    1    5          0.00024494
 ao     2    6    1    7          0.00025184
 ao     2    6    1   10         -0.00042408
 ao     2    6    2    1          0.00248313
 ao     2    6    2    2          0.01043477
 ao     2    6    2    5          0.00298915
 ao     2    6    2    6          0.00130515
 ao     2    6    2    7          0.00509015
 ao     2    6    2   10         -0.00525625
 ao     2    6    5    1          0.00024494
 ao     2    6    5    2          0.00298915
 ao     2    6    3    3          0.00983400
 ao     2    6    4    4          0.00983400
 ao     2    6    5    5          0.01161584
 ao     2    6    5    6          0.00220452
 ao     2    6    5    7          0.00688326
 ao     2    6    3    8          0.00233605
 ao     2    6    4    9          0.00233605
 ao     2    6    5   10         -0.00629602
 ao     2    6    6    2          0.00130515
 ao     2    6    6    5          0.00220452
 ao     2    6    6    6          0.07191315
 ao     2    6    6    7          0.01320127
 ao     2    6    6   10         -0.00085059
 ao     2    6    7    1          0.00025184
 ao     2    6    7    2          0.00509015
 ao     2    6    7    5          0.00688326
 ao     2    6    7    6          0.01320127
 ao     2    6    7    7          0.02472165
 ao     2    6    7   10         -0.00161108
 ao     2    6   10    1         -0.00042408
 ao     2    6   10    2         -0.00525625
 ao     2    6    8    3          0.00233605
 ao     2    6    9    4          0.00233605
 ao     2    6   10    5         -0.00629602
 ao     2    6   10    6         -0.00085059
 ao     2    6   10    7         -0.00161108
 ao     2    6    8    8          0.02464722
 ao     2    6    9    9          0.02464722
 ao     2    6   10   10          0.02487516
 ao     2    7    1    1          0.21611610
 ao     2    7    1    2          0.05037034
 ao     2    7    1    5          0.00492129
 ao     2    7    1    7          0.00509015
 ao     2    7    1   10         -0.00857297
 ao     2    7    2    1          0.05037034
 ao     2    7    2    2          0.18232335
 ao     2    7    2    5          0.03939907
 ao     2    7    2    6          0.00509015
 ao     2    7    2    7          0.05943366
 ao     2    7    2   10         -0.07218654
 ao     2    7    5    1          0.00492129
 ao     2    7    5    2          0.03939907
 ao     2    7    3    3          0.17768205
 ao     2    7    4    4          0.17768205
 ao     2    7    5    5          0.19141962
 ao     2    7    5    6          0.00857297
 ao     2    7    5    7          0.07218654
 ao     2    7    3    8          0.02892297
 ao     2    7    4    9          0.02892297
 ao     2    7    5   10         -0.07924983
 ao     2    7    6    2          0.00509015
 ao     2    7    6    5          0.00857297
 ao     2    7    6    6          0.21611610
 ao     2    7    6    7          0.05037034
 ao     2    7    6   10         -0.00492129
 ao     2    7    7    1          0.00509015
 ao     2    7    7    2          0.05943366
 ao     2    7    7    5          0.07218654
 ao     2    7    7    6          0.05037034
 ao     2    7    7    7          0.18232335
 ao     2    7    7   10         -0.03939907
 ao     2    7   10    1         -0.00857297
 ao     2    7   10    2         -0.07218654
 ao     2    7    8    3          0.02892297
 ao     2    7    9    4          0.02892297
 ao     2    7   10    5         -0.07924983
 ao     2    7   10    6         -0.00492129
 ao     2    7   10    7         -0.03939907
 ao     2    7    8    8          0.17768205
 ao     2    7    9    9          0.17768205
 ao     2    7   10   10          0.19141962
 ao     2   10    1    1         -0.29338546
 ao     2   10    1    2         -0.06811679
 ao     2    8    1    3          0.00221860
 ao     2    9    1    4          0.00221860
 ao     2   10    1    5         -0.00667592
 ao     2   10    1    7         -0.00688326
 ao     2    8    1    8          0.00004977
 ao     2    9    1    9          0.00004977
 ao     2   10    1   10          0.01159375
 ao     2   10    2    1         -0.06811679
 ao     2   10    2    2         -0.23764977
 ao     2    8    2    3          0.01821809
 ao     2    9    2    4          0.01821809
 ao     2   10    2    5         -0.04906431
 ao     2   10    2    6         -0.00525625
 ao     2   10    2    7         -0.07218654
 ao     2    8    2    8          0.00679335
 ao     2    9    2    9          0.00679335
 ao     2   10    2   10          0.09125281
 ao     2    8    3    1          0.00221860
 ao     2    9    4    1          0.00221860
 ao     2   10    5    1         -0.00667592
 ao     2    8    3    2          0.01821809
 ao     2    9    4    2          0.01821809
 ao     2   10    5    2         -0.04906431
 ao     2    8    3    5          0.00685616
 ao     2    8    5    3          0.00685616
 ao     2    9    4    5          0.00685616
 ao     2    9    5    4          0.00685616
 ao     2   10    3    3         -0.23173885
 ao     2   10    4    4         -0.23173885
 ao     2   10    5    5         -0.24924936
 ao     2    8    3    6          0.00009253
 ao     2    9    4    6          0.00009253
 ao     2   10    5    6         -0.00883719
 ao     2    8    3    7          0.00619351
 ao     2    9    4    7          0.00619351
 ao     2   10    5    7         -0.08601194
 ao     2    8    3   10         -0.00739459
 ao     2    8    5    8          0.00882088
 ao     2    9    4   10         -0.00739459
 ao     2    9    5    9          0.00882088
 ao     2   10    3    8         -0.03458672
 ao     2   10    4    9         -0.03458672
 ao     2   10    5   10          0.09949579
 ao     2   10    6    2         -0.00525625
 ao     2    8    6    3          0.00009253
 ao     2    9    6    4          0.00009253
 ao     2   10    6    5         -0.00883719
 ao     2   10    6    6         -0.21441208
 ao     2   10    6    7         -0.05049256
 ao     2    8    6    8          0.00446917
 ao     2    9    6    9          0.00446917
 ao     2   10    6   10          0.00813182
 ao     2   10    7    1         -0.00688326
 ao     2   10    7    2         -0.07218654
 ao     2    8    7    3          0.00619351
 ao     2    9    7    4          0.00619351
 ao     2   10    7    5         -0.08601194
 ao     2   10    7    6         -0.05049256
 ao     2   10    7    7         -0.19291831
 ao     2    8    7    8          0.02691423
 ao     2    9    7    9          0.02691423
 ao     2   10    7   10          0.06057815
 ao     2    8    8    1          0.00004977
 ao     2    9    9    1          0.00004977
 ao     2   10   10    1          0.01159375
 ao     2    8    8    2          0.00679335
 ao     2    9    9    2          0.00679335
 ao     2   10   10    2          0.09125281
 ao     2    8    8    5          0.00882088
 ao     2    8   10    3         -0.00739459
 ao     2    9    9    5          0.00882088
 ao     2    9   10    4         -0.00739459
 ao     2   10    8    3         -0.03458672
 ao     2   10    9    4         -0.03458672
 ao     2   10   10    5          0.09949579
 ao     2    8    8    6          0.00446917
 ao     2    9    9    6          0.00446917
 ao     2   10   10    6          0.00813182
 ao     2    8    8    7          0.02691423
 ao     2    9    9    7          0.02691423
 ao     2   10   10    7          0.06057815
 ao     2    8    8   10         -0.00774333
 ao     2    8   10    8         -0.00774333
 ao     2    9    9   10         -0.00774333
 ao     2    9   10    9         -0.00774333
 ao     2   10    8    8         -0.18410917
 ao     2   10    9    9         -0.18410917
 ao     2   10   10   10         -0.21031648
 ao     3    1    1    3          0.02447741
 ao     4    1    1    4          0.02447741
 ao     5    1    1    5          0.02447741
 ao     5    1    1    7          0.00085059
 ao     3    1    1    8          0.00035377
 ao     4    1    1    9          0.00035377
 ao     5    1    1   10         -0.00132627
 ao     3    1    2    3          0.03780861
 ao     4    1    2    4          0.03780861
 ao     5    1    2    5          0.03780861
 ao     5    1    2    6          0.00024494
 ao     5    1    2    7          0.00492129
 ao     3    1    2    8          0.00221860
 ao     4    1    2    9          0.00221860
 ao     5    1    2   10         -0.00667592
 ao     3    1    3    1          0.02447741
 ao     4    1    4    1          0.02447741
 ao     5    1    5    1          0.02447741
 ao     3    1    3    2          0.03780861
 ao     4    1    4    2          0.03780861
 ao     5    1    5    2          0.03780861
 ao     3    1    3    6          0.00000526
 ao     4    1    4    6          0.00000526
 ao     5    1    5    6          0.00041158
 ao     3    1    3    7          0.00446917
 ao     4    1    4    7          0.00446917
 ao     5    1    5    7          0.00813182
 ao     3    1    3   10         -0.00691403
 ao     3    1    5    8          0.00180058
 ao     4    1    4   10         -0.00691403
 ao     4    1    5    9          0.00180058
 ao     5    1    3    8          0.00180058
 ao     5    1    4    9          0.00180058
 ao     5    1    5   10         -0.01172507
 ao     5    1    6    2          0.00024494
 ao     3    1    6    3          0.00000526
 ao     4    1    6    4          0.00000526
 ao     5    1    6    5          0.00041158
 ao     5    1    6    6          0.00974683
 ao     5    1    6    7          0.00230711
 ao     3    1    6    8          0.00021687
 ao     4    1    6    9          0.00021687
 ao     5    1    6   10         -0.00043373
 ao     5    1    7    1          0.00085059
 ao     5    1    7    2          0.00492129
 ao     3    1    7    3          0.00446917
 ao     4    1    7    4          0.00446917
 ao     5    1    7    5          0.00813182
 ao     5    1    7    6          0.00230711
 ao     5    1    7    7          0.00943774
 ao     3    1    7    8          0.00267499
 ao     4    1    7    9          0.00267499
 ao     5    1    7   10         -0.00491521
 ao     3    1    8    1          0.00035377
 ao     4    1    9    1          0.00035377
 ao     5    1   10    1         -0.00132627
 ao     3    1    8    2          0.00221860
 ao     4    1    9    2          0.00221860
 ao     5    1   10    2         -0.00667592
 ao     3    1    8    5          0.00180058
 ao     3    1   10    3         -0.00691403
 ao     4    1    9    5          0.00180058
 ao     4    1   10    4         -0.00691403
 ao     5    1    8    3          0.00180058
 ao     5    1    9    4          0.00180058
 ao     5    1   10    5         -0.01172507
 ao     3    1    8    6          0.00021687
 ao     4    1    9    6          0.00021687
 ao     5    1   10    6         -0.00043373
 ao     3    1    8    7          0.00267499
 ao     4    1    9    7          0.00267499
 ao     5    1   10    7         -0.00491521
 ao     3    1    8   10         -0.00154526
 ao     3    1   10    8         -0.00154526
 ao     4    1    9   10         -0.00154526
 ao     4    1   10    9         -0.00154526
 ao     5    1    8    8          0.00809821
 ao     5    1    9    9          0.00809821
 ao     5    1   10   10          0.01205284
 ao     3    2    1    3          0.03780861
 ao     4    2    1    4          0.03780861
 ao     5    2    1    5          0.03780861
 ao     5    2    1    7          0.00161108
 ao     3    2    1    8          0.00067392
 ao     4    2    1    9          0.00067392
 ao     5    2    1   10         -0.00252582
 ao     3    2    2    3          0.18051839
 ao     4    2    2    4          0.18051839
 ao     5    2    2    5          0.18051839
 ao     5    2    2    6          0.00298915
 ao     5    2    2    7          0.03939907
 ao     3    2    2    8          0.01821809
 ao     4    2    2    9          0.01821809
 ao     5    2    2   10         -0.04906431
 ao     3    2    3    1          0.03780861
 ao     4    2    4    1          0.03780861
 ao     5    2    5    1          0.03780861
 ao     3    2    3    2          0.18051839
 ao     4    2    4    2          0.18051839
 ao     5    2    5    2          0.18051839
 ao     3    2    3    6          0.00006366
 ao     4    2    4    6          0.00006366
 ao     5    2    5    6          0.00502432
 ao     3    2    3    7          0.02691423
 ao     4    2    4    7          0.02691423
 ao     5    2    5    7          0.06057815
 ao     3    2    3   10         -0.03889577
 ao     3    2    5    8          0.01689170
 ao     4    2    4   10         -0.03889577
 ao     4    2    5    9          0.01689170
 ao     5    2    3    8          0.01689170
 ao     5    2    4    9          0.01689170
 ao     5    2    5   10         -0.07848820
 ao     5    2    6    2          0.00298915
 ao     3    2    6    3          0.00006366
 ao     4    2    6    4          0.00006366
 ao     5    2    6    5          0.00502432
 ao     5    2    6    6          0.12073127
 ao     5    2    6    7          0.02843327
 ao     3    2    6    8          0.00267499
 ao     4    2    6    9          0.00267499
 ao     5    2    6   10         -0.00491521
 ao     5    2    7    1          0.00161108
 ao     5    2    7    2          0.03939907
 ao     3    2    7    3          0.02691423
 ao     4    2    7    4          0.02691423
 ao     5    2    7    5          0.06057815
 ao     5    2    7    6          0.02843327
 ao     5    2    7    7          0.10730956
 ao     3    2    7    8          0.03088541
 ao     4    2    7    9          0.03088541
 ao     5    2    7   10         -0.04461968
 ao     3    2    8    1          0.00067392
 ao     4    2    9    1          0.00067392
 ao     5    2   10    1         -0.00252582
 ao     3    2    8    2          0.01821809
 ao     4    2    9    2          0.01821809
 ao     5    2   10    2         -0.04906431
 ao     3    2    8    5          0.01689170
 ao     3    2   10    3         -0.03889577
 ao     4    2    9    5          0.01689170
 ao     4    2   10    4         -0.03889577
 ao     5    2    8    3          0.01689170
 ao     5    2    9    4          0.01689170
 ao     5    2   10    5         -0.07848820
 ao     3    2    8    6          0.00267499
 ao     4    2    9    6          0.00267499
 ao     5    2   10    6         -0.00491521
 ao     3    2    8    7          0.03088541
 ao     4    2    9    7          0.03088541
 ao     5    2   10    7         -0.04461968
 ao     3    2    8   10         -0.01550668
 ao     3    2   10    8         -0.01550668
 ao     4    2    9   10         -0.01550668
 ao     4    2   10    9         -0.01550668
 ao     5    2    8    8          0.09832043
 ao     5    2    9    9          0.09832043
 ao     5    2   10   10          0.12499976
 ao     3    3    1    1          1.11581381
 ao     4    4    1    1          1.11581381
 ao     5    5    1    1          1.11581381
 ao     3    3    1    2          0.25668399
 ao     4    4    1    2          0.25668399
 ao     5    5    1    2          0.25668399
 ao     3    3    1    7          0.02464722
 ao     4    4    1    7          0.02464722
 ao     5    5    1    7          0.02487516
 ao     3    3    1   10         -0.04163687
 ao     3    5    1    8          0.00010184
 ao     4    4    1   10         -0.04163687
 ao     4    5    1    9          0.00010184
 ao     5    3    1    8          0.00010184
 ao     5    4    1    9          0.00010184
 ao     5    5    1   10         -0.04203903
 ao     3    3    2    1          0.25668399
 ao     4    4    2    1          0.25668399
 ao     5    5    2    1          0.25668399
 ao     3    3    2    2          0.81702261
 ao     4    4    2    2          0.81702261
 ao     5    5    2    2          0.81702261
 ao     3    3    2    6          0.00983400
 ao     4    4    2    6          0.00983400
 ao     5    5    2    6          0.01161584
 ao     3    3    2    7          0.17768205
 ao     4    4    2    7          0.17768205
 ao     5    5    2    7          0.19141962
 ao     3    3    2   10         -0.23173885
 ao     3    5    2    8          0.00685616
 ao     4    4    2   10         -0.23173885
 ao     4    5    2    9          0.00685616
 ao     5    3    2    8          0.00685616
 ao     5    4    2    9          0.00685616
 ao     5    5    2   10         -0.24924936
 ao     3    3    3    3          0.88015909
 ao     3    3    4    4          0.78527020
 ao     3    3    5    5          0.78527020
 ao     3    4    3    4          0.04744445
 ao     3    4    4    3          0.04744445
 ao     3    5    3    5          0.04744445
 ao     3    5    5    3          0.04744445
 ao     4    3    3    4          0.04744445
 ao     4    3    4    3          0.04744445
 ao     4    4    3    3          0.78527020
 ao     4    4    4    4          0.88015909
 ao     4    4    5    5          0.78527020
 ao     4    5    4    5          0.04744445
 ao     4    5    5    4          0.04744445
 ao     5    3    3    5          0.04744445
 ao     5    3    5    3          0.04744445
 ao     5    4    4    5          0.04744445
 ao     5    4    5    4          0.04744445
 ao     5    5    3    3          0.78527020
 ao     5    5    4    4          0.78527020
 ao     5    5    5    5          0.88015909
 ao     3    3    5    6          0.01656645
 ao     3    5    3    6          0.00003845
 ao     4    4    5    6          0.01656645
 ao     4    5    4    6          0.00003845
 ao     5    3    3    6          0.00003845
 ao     5    4    4    6          0.00003845
 ao     5    5    5    6          0.01955770
 ao     3    3    5    7          0.18410917
 ao     3    5    3    7          0.00774333
 ao     4    4    5    7          0.18410917
 ao     4    5    4    7          0.00774333
 ao     5    3    3    7          0.00774333
 ao     5    4    4    7          0.00774333
 ao     5    5    5    7          0.21031648
 ao     3    3    3    8          0.09230314
 ao     3    3    4    9          0.08561884
 ao     3    3    5   10         -0.20853386
 ao     3    4    3    9          0.00334215
 ao     3    4    4    8          0.00334215
 ao     3    5    3   10         -0.00998954
 ao     3    5    5    8          0.00934332
 ao     4    3    3    9          0.00334215
 ao     4    3    4    8          0.00334215
 ao     4    4    3    8          0.08561884
 ao     4    4    4    9          0.09230314
 ao     4    4    5   10         -0.20853386
 ao     4    5    4   10         -0.00998954
 ao     4    5    5    9          0.00934332
 ao     5    3    3   10         -0.00998954
 ao     5    3    5    8          0.00934332
 ao     5    4    4   10         -0.00998954
 ao     5    4    5    9          0.00934332
 ao     5    5    3    8          0.09162001
 ao     5    5    4    9          0.09162001
 ao     5    5    5   10         -0.24264798
 ao     3    3    6    2          0.00983400
 ao     4    4    6    2          0.00983400
 ao     5    5    6    2          0.01161584
 ao     3    3    6    5          0.01656645
 ao     3    5    6    3          0.00003845
 ao     4    4    6    5          0.01656645
 ao     4    5    6    4          0.00003845
 ao     5    3    6    3          0.00003845
 ao     5    4    6    4          0.00003845
 ao     5    5    6    5          0.01955770
 ao     3    3    6    6          0.41316224
 ao     4    4    6    6          0.41316224
 ao     5    5    6    6          0.48345690
 ao     3    3    6    7          0.09779491
 ao     4    4    6    7          0.09779491
 ao     5    5    6    7          0.11419384
 ao     3    3    6   10         -0.00809821
 ao     3    5    6    8          0.00154526
 ao     4    4    6   10         -0.00809821
 ao     4    5    6    9          0.00154526
 ao     5    3    6    8          0.00154526
 ao     5    4    6    9          0.00154526
 ao     5    5    6   10         -0.01205284
 ao     3    3    7    1          0.02464722
 ao     4    4    7    1          0.02464722
 ao     5    5    7    1          0.02487516
 ao     3    3    7    2          0.17768205
 ao     4    4    7    2          0.17768205
 ao     5    5    7    2          0.19141962
 ao     3    3    7    5          0.18410917
 ao     3    5    7    3          0.00774333
 ao     4    4    7    5          0.18410917
 ao     4    5    7    4          0.00774333
 ao     5    3    7    3          0.00774333
 ao     5    4    7    4          0.00774333
 ao     5    5    7    5          0.21031648
 ao     3    3    7    6          0.09779491
 ao     4    4    7    6          0.09779491
 ao     5    5    7    6          0.11419384
 ao     3    3    7    7          0.41055257
 ao     4    4    7    7          0.41055257
 ao     5    5    7    7          0.46233106
 ao     3    3    7   10         -0.09832043
 ao     3    5    7    8          0.01550668
 ao     4    4    7   10         -0.09832043
 ao     4    5    7    9          0.01550668
 ao     5    3    7    8          0.01550668
 ao     5    4    7    9          0.01550668
 ao     5    5    7   10         -0.12499976
 ao     3    3   10    1         -0.04163687
 ao     3    5    8    1          0.00010184
 ao     4    4   10    1         -0.04163687
 ao     4    5    9    1          0.00010184
 ao     5    3    8    1          0.00010184
 ao     5    4    9    1          0.00010184
 ao     5    5   10    1         -0.04203903
 ao     3    3   10    2         -0.23173885
 ao     3    5    8    2          0.00685616
 ao     4    4   10    2         -0.23173885
 ao     4    5    9    2          0.00685616
 ao     5    3    8    2          0.00685616
 ao     5    4    9    2          0.00685616
 ao     5    5   10    2         -0.24924936
 ao     3    3    8    3          0.09230314
 ao     3    3    9    4          0.08561884
 ao     3    3   10    5         -0.20853386
 ao     3    4    8    4          0.00334215
 ao     3    4    9    3          0.00334215
 ao     3    5    8    5          0.00934332
 ao     3    5   10    3         -0.00998954
 ao     4    3    8    4          0.00334215
 ao     4    3    9    3          0.00334215
 ao     4    4    8    3          0.08561884
 ao     4    4    9    4          0.09230314
 ao     4    4   10    5         -0.20853386
 ao     4    5    9    5          0.00934332
 ao     4    5   10    4         -0.00998954
 ao     5    3    8    5          0.00934332
 ao     5    3   10    3         -0.00998954
 ao     5    4    9    5          0.00934332
 ao     5    4   10    4         -0.00998954
 ao     5    5    8    3          0.09162001
 ao     5    5    9    4          0.09162001
 ao     5    5   10    5         -0.24264798
 ao     3    3   10    6         -0.00809821
 ao     3    5    8    6          0.00154526
 ao     4    4   10    6         -0.00809821
 ao     4    5    9    6          0.00154526
 ao     5    3    8    6          0.00154526
 ao     5    4    9    6          0.00154526
 ao     5    5   10    6         -0.01205284
 ao     3    3   10    7         -0.09832043
 ao     3    5    8    7          0.01550668
 ao     4    4   10    7         -0.09832043
 ao     4    5    9    7          0.01550668
 ao     5    3    8    7          0.01550668
 ao     5    4    9    7          0.01550668
 ao     5    5   10    7         -0.12499976
 ao     3    3    8    8          0.39853305
 ao     3    3    9    9          0.39216673
 ao     3    3   10   10          0.44042004
 ao     3    4    8    9          0.00318316
 ao     3    4    9    8          0.00318316
 ao     3    5    8   10         -0.00880823
 ao     3    5   10    8         -0.00880823
 ao     4    3    8    9          0.00318316
 ao     4    3    9    8          0.00318316
 ao     4    4    8    8          0.39216673
 ao     4    4    9    9          0.39853305
 ao     4    4   10   10          0.44042004
 ao     4    5    9   10         -0.00880823
 ao     4    5   10    9         -0.00880823
 ao     5    3    8   10         -0.00880823
 ao     5    3   10    8         -0.00880823
 ao     5    4    9   10         -0.00880823
 ao     5    4   10    9         -0.00880823
 ao     5    5    8    8          0.44042004
 ao     5    5    9    9          0.44042004
 ao     5    5   10   10          0.50573182
 ao     5    6    1    1          0.01766758
 ao     5    6    1    2          0.00418199
 ao     3    6    1    3          0.00000526
 ao     4    6    1    4          0.00000526
 ao     5    6    1    5          0.00041158
 ao     5    6    1    7          0.00042408
 ao     3    6    1    8          0.00000013
 ao     4    6    1    9          0.00000013
 ao     5    6    1   10         -0.00071414
 ao     5    6    2    1          0.00418199
 ao     5    6    2    2          0.01757494
 ao     3    6    2    3          0.00006366
 ao     4    6    2    4          0.00006366
 ao     5    6    2    5          0.00502432
 ao     5    6    2    6          0.00220452
 ao     5    6    2    7          0.00857297
 ao     3    6    2    8          0.00009253
 ao     4    6    2    9          0.00009253
 ao     5    6    2   10         -0.00883719
 ao     3    6    3    1          0.00000526
 ao     4    6    4    1          0.00000526
 ao     5    6    5    1          0.00041158
 ao     3    6    3    2          0.00006366
 ao     4    6    4    2          0.00006366
 ao     5    6    5    2          0.00502432
 ao     3    6    3    5          0.00003845
 ao     3    6    5    3          0.00003845
 ao     4    6    4    5          0.00003845
 ao     4    6    5    4          0.00003845
 ao     5    6    3    3          0.01656645
 ao     5    6    4    4          0.01656645
 ao     5    6    5    5          0.01955770
 ao     3    6    3    6          0.00000580
 ao     4    6    4    6          0.00000580
 ao     5    6    5    6          0.00372419
 ao     3    6    3    7          0.00004977
 ao     4    6    4    7          0.00004977
 ao     5    6    5    7          0.01159375
 ao     3    6    3   10         -0.00004572
 ao     3    6    5    8          0.00014099
 ao     4    6    4   10         -0.00004572
 ao     4    6    5    9          0.00014099
 ao     5    6    3    8          0.00393576
 ao     5    6    4    9          0.00393576
 ao     5    6    5   10         -0.01057617
 ao     5    6    6    2          0.00220452
 ao     3    6    6    3          0.00000580
 ao     4    6    6    4          0.00000580
 ao     5    6    6    5          0.00372419
 ao     5    6    6    6          0.12178715
 ao     5    6    6    7          0.02233807
 ao     3    6    6    8          0.00035377
 ao     4    6    6    9          0.00035377
 ao     5    6    6   10         -0.00132627
 ao     5    6    7    1          0.00042408
 ao     5    6    7    2          0.00857297
 ao     3    6    7    3          0.00004977
 ao     4    6    7    4          0.00004977
 ao     5    6    7    5          0.01159375
 ao     5    6    7    6          0.02233807
 ao     5    6    7    7          0.04176854
 ao     3    6    7    8          0.00067392
 ao     4    6    7    9          0.00067392
 ao     5    6    7   10         -0.00252582
 ao     3    6    8    1          0.00000013
 ao     4    6    9    1          0.00000013
 ao     5    6   10    1         -0.00071414
 ao     3    6    8    2          0.00009253
 ao     4    6    9    2          0.00009253
 ao     5    6   10    2         -0.00883719
 ao     3    6    8    5          0.00014099
 ao     3    6   10    3         -0.00004572
 ao     4    6    9    5          0.00014099
 ao     4    6   10    4         -0.00004572
 ao     5    6    8    3          0.00393576
 ao     5    6    9    4          0.00393576
 ao     5    6   10    5         -0.01057617
 ao     3    6    8    6          0.00035377
 ao     4    6    9    6          0.00035377
 ao     5    6   10    6         -0.00132627
 ao     3    6    8    7          0.00067392
 ao     4    6    9    7          0.00067392
 ao     5    6   10    7         -0.00252582
 ao     3    6    8   10         -0.00010184
 ao     3    6   10    8         -0.00010184
 ao     4    6    9   10         -0.00010184
 ao     4    6   10    9         -0.00010184
 ao     5    6    8    8          0.04163687
 ao     5    6    9    9          0.04163687
 ao     5    6   10   10          0.04203903
 ao     5    7    1    1          0.21441208
 ao     5    7    1    2          0.05049256
 ao     3    7    1    3          0.00446917
 ao     4    7    1    4          0.00446917
 ao     5    7    1    5          0.00813182
 ao     5    7    1    7          0.00525625
 ao     3    7    1    8          0.00009253
 ao     4    7    1    9          0.00009253
 ao     5    7    1   10         -0.00883719
 ao     5    7    2    1          0.05049256
 ao     5    7    2    2          0.19291831
 ao     3    7    2    3          0.02691423
 ao     4    7    2    4          0.02691423
 ao     5    7    2    5          0.06057815
 ao     5    7    2    6          0.00688326
 ao     5    7    2    7          0.07218654
 ao     3    7    2    8          0.00619351
 ao     4    7    2    9          0.00619351
 ao     5    7    2   10         -0.08601194
 ao     3    7    3    1          0.00446917
 ao     4    7    4    1          0.00446917
 ao     5    7    5    1          0.00813182
 ao     3    7    3    2          0.02691423
 ao     4    7    4    2          0.02691423
 ao     5    7    5    2          0.06057815
 ao     3    7    3    5          0.00774333
 ao     3    7    5    3          0.00774333
 ao     4    7    4    5          0.00774333
 ao     4    7    5    4          0.00774333
 ao     5    7    3    3          0.18410917
 ao     5    7    4    4          0.18410917
 ao     5    7    5    5          0.21031648
 ao     3    7    3    6          0.00004977
 ao     4    7    4    6          0.00004977
 ao     5    7    5    6          0.01159375
 ao     3    7    3    7          0.00679335
 ao     4    7    4    7          0.00679335
 ao     5    7    5    7          0.09125281
 ao     3    7    3   10         -0.00882088
 ao     3    7    5    8          0.00739459
 ao     4    7    4   10         -0.00882088
 ao     4    7    5    9          0.00739459
 ao     5    7    3    8          0.03458672
 ao     5    7    4    9          0.03458672
 ao     5    7    5   10         -0.09949579
 ao     5    7    6    2          0.00688326
 ao     3    7    6    3          0.00004977
 ao     4    7    6    4          0.00004977
 ao     5    7    6    5          0.01159375
 ao     5    7    6    6          0.29338546
 ao     5    7    6    7          0.06811679
 ao     3    7    6    8          0.00221860
 ao     4    7    6    9          0.00221860
 ao     5    7    6   10         -0.00667592
 ao     5    7    7    1          0.00525625
 ao     5    7    7    2          0.07218654
 ao     3    7    7    3          0.00679335
 ao     4    7    7    4          0.00679335
 ao     5    7    7    5          0.09125281
 ao     5    7    7    6          0.06811679
 ao     5    7    7    7          0.23764977
 ao     3    7    7    8          0.01821809
 ao     4    7    7    9          0.01821809
 ao     5    7    7   10         -0.04906431
 ao     3    7    8    1          0.00009253
 ao     4    7    9    1          0.00009253
 ao     5    7   10    1         -0.00883719
 ao     3    7    8    2          0.00619351
 ao     4    7    9    2          0.00619351
 ao     5    7   10    2         -0.08601194
 ao     3    7    8    5          0.00739459
 ao     3    7   10    3         -0.00882088
 ao     4    7    9    5          0.00739459
 ao     4    7   10    4         -0.00882088
 ao     5    7    8    3          0.03458672
 ao     5    7    9    4          0.03458672
 ao     5    7   10    5         -0.09949579
 ao     3    7    8    6          0.00221860
 ao     4    7    9    6          0.00221860
 ao     5    7   10    6         -0.00667592
 ao     3    7    8    7          0.01821809
 ao     4    7    9    7          0.01821809
 ao     5    7   10    7         -0.04906431
 ao     3    7    8   10         -0.00685616
 ao     3    7   10    8         -0.00685616
 ao     4    7    9   10         -0.00685616
 ao     4    7   10    9         -0.00685616
 ao     5    7    8    8          0.23173885
 ao     5    7    9    9          0.23173885
 ao     5    7   10   10          0.24924936
 ao     3    8    1    1          0.09912973
 ao     4    9    1    1          0.09912973
 ao     5   10    1    1         -0.25326472
 ao     3    8    1    2          0.02335646
 ao     4    9    1    2          0.02335646
 ao     5   10    1    2         -0.05954394
 ao     3    8    1    5          0.00180058
 ao     3   10    1    3         -0.00691403
 ao     4    9    1    5          0.00180058
 ao     4   10    1    4         -0.00691403
 ao     5    8    1    3          0.00180058
 ao     5    9    1    4          0.00180058
 ao     5   10    1    5         -0.01172507
 ao     3    8    1    7          0.00233605
 ao     4    9    1    7          0.00233605
 ao     5   10    1    7         -0.00629602
 ao     3    8    1   10         -0.00393576
 ao     3   10    1    8         -0.00014099
 ao     4    9    1   10         -0.00393576
 ao     4   10    1    9         -0.00014099
 ao     5    8    1    8          0.00004572
 ao     5    9    1    9          0.00004572
 ao     5   10    1   10          0.01057617
 ao     3    8    2    1          0.02335646
 ao     4    9    2    1          0.02335646
 ao     5   10    2    1         -0.05954394
 ao     3    8    2    2          0.08988242
 ao     4    9    2    2          0.08988242
 ao     5   10    2    2         -0.21998570
 ao     3    8    2    5          0.01689170
 ao     3   10    2    3         -0.03889577
 ao     4    9    2    5          0.01689170
 ao     4   10    2    4         -0.03889577
 ao     5    8    2    3          0.01689170
 ao     5    9    2    4          0.01689170
 ao     5   10    2    5         -0.07848820
 ao     3    8    2    6          0.00233605
 ao     4    9    2    6          0.00233605
 ao     5   10    2    6         -0.00629602
 ao     3    8    2    7          0.02892297
 ao     4    9    2    7          0.02892297
 ao     5   10    2    7         -0.07924983
 ao     3    8    2   10         -0.03458672
 ao     3   10    2    8         -0.00739459
 ao     4    9    2   10         -0.03458672
 ao     4   10    2    9         -0.00739459
 ao     5    8    2    8          0.00882088
 ao     5    9    2    9          0.00882088
 ao     5   10    2   10          0.09949579
 ao     3    8    5    1          0.00180058
 ao     3   10    3    1         -0.00691403
 ao     4    9    5    1          0.00180058
 ao     4   10    4    1         -0.00691403
 ao     5    8    3    1          0.00180058
 ao     5    9    4    1          0.00180058
 ao     5   10    5    1         -0.01172507
 ao     3    8    5    2          0.01689170
 ao     3   10    3    2         -0.03889577
 ao     4    9    5    2          0.01689170
 ao     4   10    4    2         -0.03889577
 ao     5    8    3    2          0.01689170
 ao     5    9    4    2          0.01689170
 ao     5   10    5    2         -0.07848820
 ao     3    8    3    3          0.09230314
 ao     3    8    4    4          0.08561884
 ao     3    8    5    5          0.09162001
 ao     3    9    3    4          0.00334215
 ao     3    9    4    3          0.00334215
 ao     3   10    3    5         -0.00998954
 ao     3   10    5    3         -0.00998954
 ao     4    8    3    4          0.00334215
 ao     4    8    4    3          0.00334215
 ao     4    9    3    3          0.08561884
 ao     4    9    4    4          0.09230314
 ao     4    9    5    5          0.09162001
 ao     4   10    4    5         -0.00998954
 ao     4   10    5    4         -0.00998954
 ao     5    8    3    5          0.00934332
 ao     5    8    5    3          0.00934332
 ao     5    9    4    5          0.00934332
 ao     5    9    5    4          0.00934332
 ao     5   10    3    3         -0.20853386
 ao     5   10    4    4         -0.20853386
 ao     5   10    5    5         -0.24264798
 ao     3    8    5    6          0.00393576
 ao     3   10    3    6         -0.00004572
 ao     4    9    5    6          0.00393576
 ao     4   10    4    6         -0.00004572
 ao     5    8    3    6          0.00014099
 ao     5    9    4    6          0.00014099
 ao     5   10    5    6         -0.01057617
 ao     3    8    5    7          0.03458672
 ao     3   10    3    7         -0.00882088
 ao     4    9    5    7          0.03458672
 ao     4   10    4    7         -0.00882088
 ao     5    8    3    7          0.00739459
 ao     5    9    4    7          0.00739459
 ao     5   10    5    7         -0.09949579
 ao     3    8    3    8          0.01546623
 ao     3    8    4    9          0.01388641
 ao     3    8    5   10         -0.03695109
 ao     3    9    3    9          0.00078991
 ao     3    9    4    8          0.00078991
 ao     3   10    3   10          0.01196832
 ao     3   10    5    8         -0.00847000
 ao     4    8    3    9          0.00078991
 ao     4    8    4    8          0.00078991
 ao     4    9    3    8          0.01388641
 ao     4    9    4    9          0.01546623
 ao     4    9    5   10         -0.03695109
 ao     4   10    4   10          0.01196832
 ao     4   10    5    9         -0.00847000
 ao     5    8    3   10         -0.00847000
 ao     5    8    5    8          0.01196832
 ao     5    9    4   10         -0.00847000
 ao     5    9    5    9          0.01196832
 ao     5   10    3    8         -0.03695109
 ao     5   10    4    9         -0.03695109
 ao     5   10    5   10          0.11688172
 ao     3    8    6    2          0.00233605
 ao     4    9    6    2          0.00233605
 ao     5   10    6    2         -0.00629602
 ao     3    8    6    5          0.00393576
 ao     3   10    6    3         -0.00004572
 ao     4    9    6    5          0.00393576
 ao     4   10    6    4         -0.00004572
 ao     5    8    6    3          0.00014099
 ao     5    9    6    4          0.00014099
 ao     5   10    6    5         -0.01057617
 ao     3    8    6    6          0.09912973
 ao     4    9    6    6          0.09912973
 ao     5   10    6    6         -0.25326472
 ao     3    8    6    7          0.02335646
 ao     4    9    6    7          0.02335646
 ao     5   10    6    7         -0.05954394
 ao     3    8    6   10         -0.00180058
 ao     3   10    6    8         -0.00180058
 ao     4    9    6   10         -0.00180058
 ao     4   10    6    9         -0.00180058
 ao     5    8    6    8          0.00691403
 ao     5    9    6    9          0.00691403
 ao     5   10    6   10          0.01172507
 ao     3    8    7    1          0.00233605
 ao     4    9    7    1          0.00233605
 ao     5   10    7    1         -0.00629602
 ao     3    8    7    2          0.02892297
 ao     4    9    7    2          0.02892297
 ao     5   10    7    2         -0.07924983
 ao     3    8    7    5          0.03458672
 ao     3   10    7    3         -0.00882088
 ao     4    9    7    5          0.03458672
 ao     4   10    7    4         -0.00882088
 ao     5    8    7    3          0.00739459
 ao     5    9    7    4          0.00739459
 ao     5   10    7    5         -0.09949579
 ao     3    8    7    6          0.02335646
 ao     4    9    7    6          0.02335646
 ao     5   10    7    6         -0.05954394
 ao     3    8    7    7          0.08988242
 ao     4    9    7    7          0.08988242
 ao     5   10    7    7         -0.21998570
 ao     3    8    7   10         -0.01689170
 ao     3   10    7    8         -0.01689170
 ao     4    9    7   10         -0.01689170
 ao     4   10    7    9         -0.01689170
 ao     5    8    7    8          0.03889577
 ao     5    9    7    9          0.03889577
 ao     5   10    7   10          0.07848820
 ao     3    8   10    1         -0.00393576
 ao     3   10    8    1         -0.00014099
 ao     4    9   10    1         -0.00393576
 ao     4   10    9    1         -0.00014099
 ao     5    8    8    1          0.00004572
 ao     5    9    9    1          0.00004572
 ao     5   10   10    1          0.01057617
 ao     3    8   10    2         -0.03458672
 ao     3   10    8    2         -0.00739459
 ao     4    9   10    2         -0.03458672
 ao     4   10    9    2         -0.00739459
 ao     5    8    8    2          0.00882088
 ao     5    9    9    2          0.00882088
 ao     5   10   10    2          0.09949579
 ao     3    8    8    3          0.01546623
 ao     3    8    9    4          0.01388641
 ao     3    8   10    5         -0.03695109
 ao     3    9    8    4          0.00078991
 ao     3    9    9    3          0.00078991
 ao     3   10    8    5         -0.00847000
 ao     3   10   10    3          0.01196832
 ao     4    8    8    4          0.00078991
 ao     4    8    9    3          0.00078991
 ao     4    9    8    3          0.01388641
 ao     4    9    9    4          0.01546623
 ao     4    9   10    5         -0.03695109
 ao     4   10    9    5         -0.00847000
 ao     4   10   10    4          0.01196832
 ao     5    8    8    5          0.01196832
 ao     5    8   10    3         -0.00847000
 ao     5    9    9    5          0.01196832
 ao     5    9   10    4         -0.00847000
 ao     5   10    8    3         -0.03695109
 ao     5   10    9    4         -0.03695109
 ao     5   10   10    5          0.11688172
 ao     3    8   10    6         -0.00180058
 ao     3   10    8    6         -0.00180058
 ao     4    9   10    6         -0.00180058
 ao     4   10    9    6         -0.00180058
 ao     5    8    8    6          0.00691403
 ao     5    9    9    6          0.00691403
 ao     5   10   10    6          0.01172507
 ao     3    8   10    7         -0.01689170
 ao     3   10    8    7         -0.01689170
 ao     4    9   10    7         -0.01689170
 ao     4   10    9    7         -0.01689170
 ao     5    8    8    7          0.03889577
 ao     5    9    9    7          0.03889577
 ao     5   10   10    7          0.07848820
 ao     3    8    8    8          0.09230314
 ao     3    8    9    9          0.08561884
 ao     3    8   10   10          0.09162001
 ao     3    9    8    9          0.00334215
 ao     3    9    9    8          0.00334215
 ao     3   10    8   10          0.00934332
 ao     3   10   10    8          0.00934332
 ao     4    8    8    9          0.00334215
 ao     4    8    9    8          0.00334215
 ao     4    9    8    8          0.08561884
 ao     4    9    9    9          0.09230314
 ao     4    9   10   10          0.09162001
 ao     4   10    9   10          0.00934332
 ao     4   10   10    9          0.00934332
 ao     5    8    8   10         -0.00998954
 ao     5    8   10    8         -0.00998954
 ao     5    9    9   10         -0.00998954
 ao     5    9   10    9         -0.00998954
 ao     5   10    8    8         -0.20853386
 ao     5   10    9    9         -0.20853386
 ao     5   10   10   10         -0.24264798
 ao     6    2    1    1          0.01049044
 ao     6    2    1    2          0.00248313
 ao     6    2    1    5          0.00024494
 ao     6    2    1    7          0.00025184
 ao     6    2    1   10         -0.00042408
 ao     6    2    2    1          0.00248313
 ao     6    2    2    2          0.01043477
 ao     6    2    2    5          0.00298915
 ao     6    2    2    6          0.00130515
 ao     6    2    2    7          0.00509015
 ao     6    2    2   10         -0.00525625
 ao     6    2    5    1          0.00024494
 ao     6    2    5    2          0.00298915
 ao     6    2    3    3          0.00983400
 ao     6    2    4    4          0.00983400
 ao     6    2    5    5          0.01161584
 ao     6    2    5    6          0.00220452
 ao     6    2    5    7          0.00688326
 ao     6    2    3    8          0.00233605
 ao     6    2    4    9          0.00233605
 ao     6    2    5   10         -0.00629602
 ao     6    2    6    2          0.00130515
 ao     6    2    6    5          0.00220452
 ao     6    2    6    6          0.07191315
 ao     6    2    6    7          0.01320127
 ao     6    2    6   10         -0.00085059
 ao     6    2    7    1          0.00025184
 ao     6    2    7    2          0.00509015
 ao     6    2    7    5          0.00688326
 ao     6    2    7    6          0.01320127
 ao     6    2    7    7          0.02472165
 ao     6    2    7   10         -0.00161108
 ao     6    2   10    1         -0.00042408
 ao     6    2   10    2         -0.00525625
 ao     6    2    8    3          0.00233605
 ao     6    2    9    4          0.00233605
 ao     6    2   10    5         -0.00629602
 ao     6    2   10    6         -0.00085059
 ao     6    2   10    7         -0.00161108
 ao     6    2    8    8          0.02464722
 ao     6    2    9    9          0.02464722
 ao     6    2   10   10          0.02487516
 ao     6    5    1    1          0.01766758
 ao     6    5    1    2          0.00418199
 ao     6    3    1    3          0.00000526
 ao     6    4    1    4          0.00000526
 ao     6    5    1    5          0.00041158
 ao     6    5    1    7          0.00042408
 ao     6    3    1    8          0.00000013
 ao     6    4    1    9          0.00000013
 ao     6    5    1   10         -0.00071414
 ao     6    5    2    1          0.00418199
 ao     6    5    2    2          0.01757494
 ao     6    3    2    3          0.00006366
 ao     6    4    2    4          0.00006366
 ao     6    5    2    5          0.00502432
 ao     6    5    2    6          0.00220452
 ao     6    5    2    7          0.00857297
 ao     6    3    2    8          0.00009253
 ao     6    4    2    9          0.00009253
 ao     6    5    2   10         -0.00883719
 ao     6    3    3    1          0.00000526
 ao     6    4    4    1          0.00000526
 ao     6    5    5    1          0.00041158
 ao     6    3    3    2          0.00006366
 ao     6    4    4    2          0.00006366
 ao     6    5    5    2          0.00502432
 ao     6    3    3    5          0.00003845
 ao     6    3    5    3          0.00003845
 ao     6    4    4    5          0.00003845
 ao     6    4    5    4          0.00003845
 ao     6    5    3    3          0.01656645
 ao     6    5    4    4          0.01656645
 ao     6    5    5    5          0.01955770
 ao     6    3    3    6          0.00000580
 ao     6    4    4    6          0.00000580
 ao     6    5    5    6          0.00372419
 ao     6    3    3    7          0.00004977
 ao     6    4    4    7          0.00004977
 ao     6    5    5    7          0.01159375
 ao     6    3    3   10         -0.00004572
 ao     6    3    5    8          0.00014099
 ao     6    4    4   10         -0.00004572
 ao     6    4    5    9          0.00014099
 ao     6    5    3    8          0.00393576
 ao     6    5    4    9          0.00393576
 ao     6    5    5   10         -0.01057617
 ao     6    5    6    2          0.00220452
 ao     6    3    6    3          0.00000580
 ao     6    4    6    4          0.00000580
 ao     6    5    6    5          0.00372419
 ao     6    5    6    6          0.12178715
 ao     6    5    6    7          0.02233807
 ao     6    3    6    8          0.00035377
 ao     6    4    6    9          0.00035377
 ao     6    5    6   10         -0.00132627
 ao     6    5    7    1          0.00042408
 ao     6    5    7    2          0.00857297
 ao     6    3    7    3          0.00004977
 ao     6    4    7    4          0.00004977
 ao     6    5    7    5          0.01159375
 ao     6    5    7    6          0.02233807
 ao     6    5    7    7          0.04176854
 ao     6    3    7    8          0.00067392
 ao     6    4    7    9          0.00067392
 ao     6    5    7   10         -0.00252582
 ao     6    3    8    1          0.00000013
 ao     6    4    9    1          0.00000013
 ao     6    5   10    1         -0.00071414
 ao     6    3    8    2          0.00009253
 ao     6    4    9    2          0.00009253
 ao     6    5   10    2         -0.00883719
 ao     6    3    8    5          0.00014099
 ao     6    3   10    3         -0.00004572
 ao     6    4    9    5          0.00014099
 ao     6    4   10    4         -0.00004572
 ao     6    5    8    3          0.00393576
 ao     6    5    9    4          0.00393576
 ao     6    5   10    5         -0.01057617
 ao     6    3    8    6          0.00035377
 ao     6    4    9    6          0.00035377
 ao     6    5   10    6         -0.00132627
 ao     6    3    8    7          0.00067392
 ao     6    4    9    7          0.00067392
 ao     6    5   10    7         -0.00252582
 ao     6    3    8   10         -0.00010184
 ao     6    3   10    8         -0.00010184
 ao     6    4    9   10         -0.00010184
 ao     6    4   10    9         -0.00010184
 ao     6    5    8    8          0.04163687
 ao     6    5    9    9          0.04163687
 ao     6    5   10   10          0.04203903
 ao     6    6    1    1          0.43806064
 ao     6    6    1    2          0.10369068
 ao     6    6    1    5          0.00974683
 ao     6    6    1    7          0.01049044
 ao     6    6    1   10         -0.01766758
 ao     6    6    2    1          0.10369068
 ao     6    6    2    2          0.43687371
 ao     6    6    2    5          0.12073127
 ao     6    6    2    6          0.07191315
 ao     6    6    2    7          0.21611610
 ao     6    6    2   10         -0.21441208
 ao     6    6    5    1          0.00974683
 ao     6    6    5    2          0.12073127
 ao     6    6    3    3          0.41316224
 ao     6    6    4    4          0.41316224
 ao     6    6    5    5          0.48345690
 ao     6    6    5    6          0.12178715
 ao     6    6    5    7          0.29338546
 ao     6    6    3    8          0.09912973
 ao     6    6    4    9          0.09912973
 ao     6    6    5   10         -0.25326472
 ao     6    6    6    2          0.07191315
 ao     6    6    6    5          0.12178715
 ao     6    6    6    6          4.78506540
 ao     6    6    6    7          0.74138035
 ao     6    6    7    1          0.01049044
 ao     6    6    7    2          0.21611610
 ao     6    6    7    5          0.29338546
 ao     6    6    7    6          0.74138035
 ao     6    6    7    7          1.11894687
 ao     6    6   10    1         -0.01766758
 ao     6    6   10    2         -0.21441208
 ao     6    6    8    3          0.09912973
 ao     6    6    9    4          0.09912973
 ao     6    6   10    5         -0.25326472
 ao     6    6    8    8          1.11581381
 ao     6    6    9    9          1.11581381
 ao     6    6   10   10          1.11581381
 ao     6    7    1    1          0.10369068
 ao     6    7    1    2          0.02454399
 ao     6    7    1    5          0.00230711
 ao     6    7    1    7          0.00248313
 ao     6    7    1   10         -0.00418199
 ao     6    7    2    1          0.02454399
 ao     6    7    2    2          0.10332373
 ao     6    7    2    5          0.02843327
 ao     6    7    2    6          0.01320127
 ao     6    7    2    7          0.05037034
 ao     6    7    2   10         -0.05049256
 ao     6    7    5    1          0.00230711
 ao     6    7    5    2          0.02843327
 ao     6    7    3    3          0.09779491
 ao     6    7    4    4          0.09779491
 ao     6    7    5    5          0.11419384
 ao     6    7    5    6          0.02233807
 ao     6    7    5    7          0.06811679
 ao     6    7    3    8          0.02335646
 ao     6    7    4    9          0.02335646
 ao     6    7    5   10         -0.05954394
 ao     6    7    6    2          0.01320127
 ao     6    7    6    5          0.02233807
 ao     6    7    6    6          0.74138035
 ao     6    7    6    7          0.13687339
 ao     6    7    7    1          0.00248313
 ao     6    7    7    2          0.05037034
 ao     6    7    7    5          0.06811679
 ao     6    7    7    6          0.13687339
 ao     6    7    7    7          0.25663339
[...]
 ao     9    8    3    4          0.00318316
 ao     9    8    4    3          0.00318316
 ao     9    9    3    3          0.39216673
 ao     9    9    4    4          0.39853305
 ao     9    9    5    5          0.44042004
 ao     9   10    4    5         -0.00880823
 ao     9   10    5    4         -0.00880823
 ao    10    8    3    5         -0.00880823
 ao    10    8    5    3         -0.00880823
 ao    10    9    4    5         -0.00880823
 ao    10    9    5    4         -0.00880823
 ao    10   10    3    3          0.44042004
 ao    10   10    4    4          0.44042004
 ao    10   10    5    5          0.50573182
 ao     8    8    5    6          0.04163687
 ao     8   10    3    6         -0.00010184
 ao     9    9    5    6          0.04163687
 ao     9   10    4    6         -0.00010184
 ao    10    8    3    6         -0.00010184
 ao    10    9    4    6         -0.00010184
 ao    10   10    5    6          0.04203903
 ao     8    8    5    7          0.23173885
 ao     8   10    3    7         -0.00685616
 ao     9    9    5    7          0.23173885
 ao     9   10    4    7         -0.00685616
 ao    10    8    3    7         -0.00685616
 ao    10    9    4    7         -0.00685616
 ao    10   10    5    7          0.24924936
 ao     8    8    3    8          0.09230314
 ao     8    8    4    9          0.08561884
 ao     8    8    5   10         -0.20853386
 ao     8    9    3    9          0.00334215
 ao     8    9    4    8          0.00334215
 ao     8   10    3   10          0.00934332
 ao     8   10    5    8         -0.00998954
 ao     9    8    3    9          0.00334215
 ao     9    8    4    8          0.00334215
 ao     9    9    3    8          0.08561884
 ao     9    9    4    9          0.09230314
 ao     9    9    5   10         -0.20853386
 ao     9   10    4   10          0.00934332
 ao     9   10    5    9         -0.00998954
 ao    10    8    3   10          0.00934332
 ao    10    8    5    8         -0.00998954
 ao    10    9    4   10          0.00934332
 ao    10    9    5    9         -0.00998954
 ao    10   10    3    8          0.09162001
 ao    10   10    4    9          0.09162001
 ao    10   10    5   10         -0.24264798
 ao     8    8    6    2          0.02464722
 ao     9    9    6    2          0.02464722
 ao    10   10    6    2          0.02487516
 ao     8    8    6    5          0.04163687
 ao     8   10    6    3         -0.00010184
 ao     9    9    6    5          0.04163687
 ao     9   10    6    4         -0.00010184
 ao    10    8    6    3         -0.00010184
 ao    10    9    6    4         -0.00010184
 ao    10   10    6    5          0.04203903
 ao     8    8    6    6          1.11581381
 ao     9    9    6    6          1.11581381
 ao    10   10    6    6          1.11581381
 ao     8    8    6    7          0.25668399
 ao     9    9    6    7          0.25668399
 ao    10   10    6    7          0.25668399
 ao     8    8    7    1          0.00983400
 ao     9    9    7    1          0.00983400
 ao    10   10    7    1          0.01161584
 ao     8    8    7    2          0.17768205
 ao     9    9    7    2          0.17768205
 ao    10   10    7    2          0.19141962
 ao     8    8    7    5          0.23173885
 ao     8   10    7    3         -0.00685616
 ao     9    9    7    5          0.23173885
 ao     9   10    7    4         -0.00685616
 ao    10    8    7    3         -0.00685616
 ao    10    9    7    4         -0.00685616
 ao    10   10    7    5          0.24924936
 ao     8    8    7    6          0.25668399
 ao     9    9    7    6          0.25668399
 ao    10   10    7    6          0.25668399
 ao     8    8    7    7          0.81702261
 ao     9    9    7    7          0.81702261
 ao    10   10    7    7          0.81702261
 ao     8    8   10    1         -0.01656645
 ao     8   10    8    1         -0.00003845
 ao     9    9   10    1         -0.01656645
 ao     9   10    9    1         -0.00003845
 ao    10    8    8    1         -0.00003845
 ao    10    9    9    1         -0.00003845
 ao    10   10   10    1         -0.01955770
 ao     8    8   10    2         -0.18410917
 ao     8   10    8    2         -0.00774333
 ao     9    9   10    2         -0.18410917
 ao     9   10    9    2         -0.00774333
 ao    10    8    8    2         -0.00774333
 ao    10    9    9    2         -0.00774333
 ao    10   10   10    2         -0.21031648
 ao     8    8    8    3          0.09230314
 ao     8    8    9    4          0.08561884
 ao     8    8   10    5         -0.20853386
 ao     8    9    8    4          0.00334215
 ao     8    9    9    3          0.00334215
 ao     8   10    8    5         -0.00998954
 ao     8   10   10    3          0.00934332
 ao     9    8    8    4          0.00334215
 ao     9    8    9    3          0.00334215
 ao     9    9    8    3          0.08561884
 ao     9    9    9    4          0.09230314
 ao     9    9   10    5         -0.20853386
 ao     9   10    9    5         -0.00998954
 ao     9   10   10    4          0.00934332
 ao    10    8    8    5         -0.00998954
 ao    10    8   10    3          0.00934332
 ao    10    9    9    5         -0.00998954
 ao    10    9   10    4          0.00934332
 ao    10   10    8    3          0.09162001
 ao    10   10    9    4          0.09162001
 ao    10   10   10    5         -0.24264798
 ao     8    8    8    8          0.88015909
 ao     8    8    9    9          0.78527020
 ao     8    8   10   10          0.78527020
 ao     8    9    8    9          0.04744445
 ao     8    9    9    8          0.04744445
 ao     8   10    8   10          0.04744445
 ao     8   10   10    8          0.04744445
 ao     9    8    8    9          0.04744445
 ao     9    8    9    8          0.04744445
 ao     9    9    8    8          0.78527020
 ao     9    9    9    9          0.88015909
 ao     9    9   10   10          0.78527020
 ao     9   10    9   10          0.04744445
 ao     9   10   10    9          0.04744445
 ao    10    8    8   10          0.04744445
 ao    10    8   10    8          0.04744445
 ao    10    9    9   10          0.04744445
 ao    10    9   10    9          0.04744445
 ao    10   10    8    8          0.78527020
 ao    10   10    9    9          0.78527020
 ao    10   10   10   10          0.88015909
 ====================================
 End all 2-e integrals
 ====================================

 Forming initial guess at       0.0s


      Superposition of Atomic Density Guess
      -------------------------------------

 Sum of atomic energies:        -147.55558445

      Non-variational initial energy
      ------------------------------

 Total energy =    -147.355809
 1-e energy   =    -261.708845
 2-e energy   =      86.317155
 HOMO         =      -0.007267
 LUMO         =      -0.007267


 !!!!!!!!!!!!!!!!!!!!!!!!!!!!!!!!!!!!!!!!!!!!!!!!!!!!!!!!!!!!!!!!!!!!!!
 Warning - the HOMO and LUMO are degenerate and you are using symmetry.
 This can lead to non-variational energies and poor convergence.
 Modify the initial guess, or use an open-shell wavefunction, or turn
 off symmetry.
 !!!!!!!!!!!!!!!!!!!!!!!!!!!!!!!!!!!!!!!!!!!!!!!!!!!!!!!!!!!!!!!!!!!!!!


      Symmetry analysis of molecular orbitals - initial
      -------------------------------------------------

  Numbering of irreducible representations: 

     1 a1g         2 a1u         3 a2g         4 a2u         5 b1g     
     6 b1u         7 b2g         8 b2u         9 eg         10 eu      

  Orbital symmetries:

     1 a1g         2 a2u         3 a1g         4 a2u         5 a1g     
     6 eu          7 eu          8 eg          9 eg         10 a2u     


 Starting SCF solution at       0.0s



 ----------------------------------------------
         Quadratically convergent ROHF

 Convergence threshold     :          1.000E-04
 Maximum no. of iterations :           30
 Final Fock-matrix accuracy:          1.000E-07
 ----------------------------------------------

 Warning: symmetry breaking in RHF:   0.58957637865862544     

 #quartets = 1.550D+02 #integrals = 3.940D+02 #direct =  0.0% #cached =100.0%


 Integral file          = ./O2.aoints.0
 Record size in doubles =  65536        No. of integs per rec  =  43688
 Max. records in memory =      2        Max. records in file   = 712545
 No. of bits per label  =      8        No. of bits per value  =     64


              iter       energy          gnorm     gmax       time
             ----- ------------------- --------- --------- --------
                 1     -147.2878607074  2.36D-01  1.94D-01      0.4

 *** WARNING: SMALL OCC-VIRT ORBITAL ENERGY DIFFERENCE DETECTED
 (Including frequency factor for response)
 This is going to lead to diverging respose properties
 I have adjusted the denominator to a value of 1E-5
 Warning: symmetry breaking in RHF:   0.58957637865862489     
 Warning: symmetry breaking in RHF:   0.58957637865862489     
                 2     -147.2915338939  4.26D-02  4.26D-02      0.4

 *** WARNING: SMALL OCC-VIRT ORBITAL ENERGY DIFFERENCE DETECTED
 (Including frequency factor for response)
 This is going to lead to diverging respose properties
 I have adjusted the denominator to a value of 1E-5
 Warning: symmetry breaking in RHF:   0.58957637865862489     
                 3     -147.2915454789  5.67D-04  5.66D-04      0.4

 *** WARNING: SMALL OCC-VIRT ORBITAL ENERGY DIFFERENCE DETECTED
 (Including frequency factor for response)
 This is going to lead to diverging respose properties
 I have adjusted the denominator to a value of 1E-5

 *** WARNING: SMALL OCC-VIRT ORBITAL ENERGY DIFFERENCE DETECTED
 (Including frequency factor for response)
 This is going to lead to diverging respose properties
 I have adjusted the denominator to a value of 1E-5
 Warning: symmetry breaking in RHF:   0.58957637865862489     
                 4     -147.2915455092  1.07D-08  1.05D-08      0.4


       Final RHF  results 
       ------------------ 

         Total SCF energy =   -147.291545509151
      One-electron energy =   -260.231265873408
      Two-electron energy =     84.903839622551
 Nuclear repulsion energy =     28.035880741706

        Time for solution =      0.0s



       Symmetry analysis of molecular orbitals - final
       -----------------------------------------------

  Numbering of irreducible representations: 

     1 a1g         2 a1u         3 a2g         4 a2u         5 b1g     
     6 b1u         7 b2g         8 b2u         9 eg         10 eu      

  Orbital symmetries:

     1 a2u         2 a1g         3 a1g         4 a2u         5 a1g     
     6 eu          7 eu          8 eg          9 eg         10 a2u     

             Final eigenvalues
             -----------------

              1      
    1  -20.4254
    2  -20.4248
    3   -1.5545
    4   -0.9928
    5   -0.5822
    6   -0.5806
    7   -0.5806
    8   -0.0710
    9   -0.0710
   10    0.7337

                       ROHF Final Molecular Orbital Analysis
                       -------------------------------------

 Vector    2  Occ=2.000000D+00  E=-2.042481D+01  Symmetry=a1g
              MO Center=  1.1D-19, -6.8D-20, -1.3D-16, r^2= 3.8D-01
   Bfn.  Coefficient  Atom+Function         Bfn.  Coefficient  Atom+Function  
  ----- ------------  ---------------      ----- ------------  ---------------
     1      0.703662  1 O  s                  6      0.703662  2 O  s          

 Vector    3  Occ=2.000000D+00  E=-1.554490D+00  Symmetry=a1g
              MO Center= -6.1D-35,  3.9D-35, -1.4D-17, r^2= 5.2D-01
   Bfn.  Coefficient  Atom+Function         Bfn.  Coefficient  Atom+Function  
  ----- ------------  ---------------      ----- ------------  ---------------
     2      0.574073  1 O  s                  7      0.574073  2 O  s          
     5      0.171551  1 O  pz                10     -0.171551  2 O  pz         
     1     -0.169175  1 O  s                  6     -0.169175  2 O  s          

 Vector    4  Occ=2.000000D+00  E=-9.927711D-01  Symmetry=a2u
              MO Center= -4.9D-46,  8.7D-46, -7.6D-17, r^2= 1.0D+00
   Bfn.  Coefficient  Atom+Function         Bfn.  Coefficient  Atom+Function  
  ----- ------------  ---------------      ----- ------------  ---------------
     2      0.776240  1 O  s                  7     -0.776240  2 O  s          
     1     -0.185234  1 O  s                  6      0.185234  2 O  s          
     5     -0.158138  1 O  pz                10     -0.158138  2 O  pz         

 Vector    5  Occ=2.000000D+00  E=-5.822366D-01  Symmetry=a1g
              MO Center=  3.1D-16, -2.0D-16,  3.9D-16, r^2= 1.0D+00
   Bfn.  Coefficient  Atom+Function         Bfn.  Coefficient  Atom+Function  
  ----- ------------  ---------------      ----- ------------  ---------------
     5      0.615105  1 O  pz                10     -0.615105  2 O  pz         
     2     -0.330317  1 O  s                  7     -0.330317  2 O  s          

 Vector    6  Occ=2.000000D+00  E=-5.805588D-01  Symmetry=eu
              MO Center= -9.3D-17,  2.7D-16,  2.8D-17, r^2= 7.6D-01
   Bfn.  Coefficient  Atom+Function         Bfn.  Coefficient  Atom+Function  
  ----- ------------  ---------------      ----- ------------  ---------------
     4      0.622878  1 O  py                 9      0.622878  2 O  py         
     3     -0.214372  1 O  px                 8     -0.214372  2 O  px         

 Vector    7  Occ=2.000000D+00  E=-5.805588D-01  Symmetry=eu
              MO Center= -2.1D-16, -7.4D-17,  3.5D-17, r^2= 7.6D-01
   Bfn.  Coefficient  Atom+Function         Bfn.  Coefficient  Atom+Function  
  ----- ------------  ---------------      ----- ------------  ---------------
     3      0.622878  1 O  px                 8      0.622878  2 O  px         
     4      0.214372  1 O  py                 9      0.214372  2 O  py         

 Vector    8  Occ=2.000000D+00  E=-7.095611D-02  Symmetry=eg
              MO Center= -1.3D-24,  9.8D-23, -1.7D-16, r^2= 8.0D-01
   Bfn.  Coefficient  Atom+Function         Bfn.  Coefficient  Atom+Function  
  ----- ------------  ---------------      ----- ------------  ---------------
     4      0.767911  1 O  py                 9     -0.767911  2 O  py         

 Vector    9  Occ=0.000000D+00  E=-7.095611D-02  Symmetry=eg
              MO Center=  7.0D-19,  9.6D-21,  1.6D-17, r^2= 8.0D-01
   Bfn.  Coefficient  Atom+Function         Bfn.  Coefficient  Atom+Function  
  ----- ------------  ---------------      ----- ------------  ---------------
     3      0.767911  1 O  px                 8     -0.767911  2 O  px         

 Vector   10  Occ=0.000000D+00  E= 7.336848D-01  Symmetry=a2u
              MO Center= -7.0D-19, -9.7D-21, -1.1D-16, r^2= 5.9D-01
   Bfn.  Coefficient  Atom+Function         Bfn.  Coefficient  Atom+Function  
  ----- ------------  ---------------      ----- ------------  ---------------
     5      0.944669  1 O  pz                10      0.944669  2 O  pz         
     2      0.581935  1 O  s                  7     -0.581935  2 O  s          


 center of mass
 --------------
 x =   0.00000000 y =   0.00000000 z =   0.00000000

 moments of inertia (a.u.)
 ------------------
          41.675742421863           0.000000000000           0.000000000000
           0.000000000000          41.675742421863           0.000000000000
           0.000000000000           0.000000000000           0.000000000000

  Mulliken analysis of the total density
  --------------------------------------

    Atom       Charge   Shell Charges
 -----------   ------   -------------------------------------------------------
    1 O    8     8.00   2.00  1.89  4.11
    2 O    8     8.00   2.00  1.89  4.11

       Multipole analysis of the density wrt the origin
       ------------------------------------------------

     L   x y z        total         open         nuclear
     -   - - -        -----         ----         -------
     0   0 0 0     -0.000000      0.000000     16.000000

     1   1 0 0      0.000000      0.000000      0.000000
     1   0 1 0     -0.000000      0.000000      0.000000
     1   0 0 1      0.000000      0.000000      0.000000

     2   2 0 0     -5.752408      0.000000      0.000000
     2   1 1 0      0.015038      0.000000      0.000000
     2   1 0 1     -0.000000      0.000000      0.000000
     2   0 2 0     -6.845774      0.000000      0.000000
     2   0 1 1     -0.000000      0.000000      0.000000
     2   0 0 2     -7.223915      0.000000     20.844502


 Parallel integral file used       1 records with       0 large values


 Task  times  cpu:        0.1s     wall:        0.1s
 Summary of allocated global arrays
-----------------------------------
  No active global arrays



                         GA Statistics for process    0
                         ------------------------------

       create   destroy   get      put      acc     scatter   gather  read&inc
calls:  233      233     2617     1224     1500        0        0      109     
number of processes/call 1.00e+00 1.00e+00 1.00e+00 0.00e+00 0.00e+00
bytes total:             4.11e+05 1.82e+05 2.76e+05 0.00e+00 0.00e+00 8.72e+02
bytes remote:            0.00e+00 0.00e+00 0.00e+00 0.00e+00 0.00e+00 0.00e+00
Max memory consumed for GA by this process: 10400 bytes
MA_summarize_allocated_blocks: starting scan ...
MA_summarize_allocated_blocks: scan completed: 0 heap blocks, 0 stack blocks
MA usage statistics:

	allocation statistics:
					      heap	     stack
					      ----	     -----
	current number of blocks	         0	         0
	maximum number of blocks	        18	        14
	current total bytes		         0	         0
	maximum total bytes		   1054728	  22509224
	maximum total K-bytes		      1055	     22510
	maximum total M-bytes		         2	        23


                                NWChem Input Module
                                -------------------





                                     CITATION
                                     --------
                Please cite the following reference when publishing
                           results obtained with NWChem:

                 M. Valiev, E.J. Bylaska, N. Govind, K. Kowalski,
              T.P. Straatsma, H.J.J. van Dam, D. Wang, J. Nieplocha,
                        E. Apra, T.L. Windus, W.A. de Jong
                 "NWChem: a comprehensive and scalable open-source
                  solution for large scale molecular simulations"
                      Comput. Phys. Commun. 181, 1477 (2010)
                           doi:10.1016/j.cpc.2010.04.018

                                      AUTHORS
                                      -------
          E. Apra, E. J. Bylaska, W. A. de Jong, N. Govind, K. Kowalski,
       T. P. Straatsma, M. Valiev, H. J. J. van Dam, D. Wang, T. L. Windus,
        J. Hammond, J. Autschbach, K. Bhaskaran-Nair, J. Brabec, K. Lopata,
       S. A. Fischer, S. Krishnamoorthy, W. Ma, M. Klemm, O. Villa, Y. Chen,
    V. Anisimov, F. Aquino, S. Hirata, M. T. Hackler, T. Risthaus, M. Malagoli,
       A. Marenich, A. Otero-de-la-Roza, J. Mullin, P. Nichols, R. Peverati,
     J. Pittner, Y. Zhao, P.-D. Fan, A. Fonari, M. Williamson, R. J. Harrison,
       J. R. Rehr, M. Dupuis, D. Silverstein, D. M. A. Smith, J. Nieplocha,
        V. Tipparaju, M. Krishnan, B. E. Van Kuiken, A. Vazquez-Mayagoitia,
        L. Jensen, M. Swart, Q. Wu, T. Van Voorhis, A. A. Auer, M. Nooijen,
      L. D. Crosby, E. Brown, G. Cisneros, G. I. Fann, H. Fruchtl, J. Garza,
        K. Hirao, R. A. Kendall, J. A. Nichols, K. Tsemekhman, K. Wolinski,
     J. Anchell, D. E. Bernholdt, P. Borowski, T. Clark, D. Clerc, H. Dachsel,
   M. J. O. Deegan, K. Dyall, D. Elwood, E. Glendening, M. Gutowski, A. C. Hess,
         J. Jaffe, B. G. Johnson, J. Ju, R. Kobayashi, R. Kutteh, Z. Lin,
   R. Littlefield, X. Long, B. Meng, T. Nakajima, S. Niu, L. Pollack, M. Rosing,
   K. Glaesemann, G. Sandrone, M. Stave, H. Taylor, G. Thomas, J. H. van Lenthe,
                               A. T. Wong, Z. Zhang.

 Total times  cpu:        0.1s     wall:        0.1s
