 argument  1 = O2.nw



============================== echo of input deck ==============================
start O2
echo

geometry units angstroms
O          0.00000        0.00000        0.00000
O          1.20800        0.00000        0.00000
end

basis "ao basis" SPHERICAL
O    S
    130.7093200              0.15432897
     23.8088610              0.53532814
      6.4436083              0.44463454
O    SP
      5.0331513             -0.09996723             0.15591627
      1.1695961              0.39951283             0.60768372
      0.3803890              0.70011547             0.39195739
end

scf
  rhf
  print "potential"
  #triplet
end

task scf
================================================================================


                                         
                                         


              Northwest Computational Chemistry Package (NWChem) 6.6
              ------------------------------------------------------


                    Environmental Molecular Sciences Laboratory
                       Pacific Northwest National Laboratory
                                Richland, WA 99352

                              Copyright (c) 1994-2015
                       Pacific Northwest National Laboratory
                            Battelle Memorial Institute

             NWChem is an open-source computational chemistry package
                        distributed under the terms of the
                      Educational Community License (ECL) 2.0
             A copy of the license is included with this distribution
                              in the LICENSE.TXT file

                                  ACKNOWLEDGMENT
                                  --------------

            This software and its documentation were developed at the
            EMSL at Pacific Northwest National Laboratory, a multiprogram
            national laboratory, operated for the U.S. Department of Energy
            by Battelle under Contract Number DE-AC05-76RL01830. Support
            for this work was provided by the Department of Energy Office
            of Biological and Environmental Research, Office of Basic
            Energy Sciences, and the Office of Advanced Scientific Computing.


           Job information
           ---------------

    hostname        = avo
    program         = nwchem
    date            = Sat Mar 12 23:22:48 2016

    compiled        = Пт_ноя_20_00:03:40_2015
    source          = /opt/nwchem/nwchem-6.6
    nwchem branch   = 6.6
    nwchem revision = 27746
    ga revision     = 10594
    input           = O2.nw
    prefix          = O2.
    data base       = ./O2.db
    status          = startup
    nproc           =        1
    time left       =     -1s



           Memory information
           ------------------

    heap     =   46991804 doubles =    358.5 Mbytes
    stack    =   46991809 doubles =    358.5 Mbytes
    global   =   93983616 doubles =    717.0 Mbytes (distinct from heap & stack)
    total    =  187967229 doubles =   1434.1 Mbytes
    verify   = yes
    hardfail = no 


           Directory information
           ---------------------

  0 permanent = .
  0 scratch   = .




                                NWChem Input Module
                                -------------------



 Scaling coordinates for geometry "geometry" by  1.889725989
 (inverse scale =  0.529177249)

 ORDER OF PRIMARY AXIS IS BEING SET TO 4
 D4H symmetry detected

          ------
          auto-z
          ------


                             Geometry "geometry" -> ""
                             -------------------------

 Output coordinates in angstroms (scale by  1.889725989 to convert to a.u.)

  No.       Tag          Charge          X              Y              Z
 ---- ---------------- ---------- -------------- -------------- --------------
    1 O                    8.0000     0.00000000     0.00000000    -0.60400000
    2 O                    8.0000     0.00000000     0.00000000     0.60400000

      Atomic Mass 
      ----------- 

      O                 15.994910


 Effective nuclear repulsion energy (a.u.)      28.0358807417

            Nuclear Dipole moment (a.u.) 
            ----------------------------
        X                 Y               Z
 ---------------- ---------------- ----------------
     0.0000000000     0.0000000000     0.0000000000

      Symmetry information
      --------------------

 Group name             D4h       
 Group number             28
 Group order              16
 No. of unique centers     1

      Symmetry unique atoms

     1



                                Z-matrix (autoz)
                                -------- 

 Units are Angstrom for bonds and degrees for angles

      Type          Name      I     J     K     L     M      Value
      ----------- --------  ----- ----- ----- ----- ----- ----------
    1 Stretch                  1     2                       1.20800


            XYZ format geometry
            -------------------
     2
 geometry
 O                     0.00000000     0.00000000    -0.60400000
 O                     0.00000000     0.00000000     0.60400000

 ==============================================================================
                                internuclear distances
 ------------------------------------------------------------------------------
       center one      |      center two      | atomic units |  angstroms
 ------------------------------------------------------------------------------
    2 O                |   1 O                |     2.28279  |     1.20800
 ------------------------------------------------------------------------------
                         number of included internuclear distances:          1
 ==============================================================================



                      Basis "ao basis" -> "" (spherical)
                      -----
  O (Oxygen)
  ----------
            Exponent  Coefficients 
       -------------- ---------------------------------------------------------
  1 S  1.30709320E+02  0.154329
  1 S  2.38088610E+01  0.535328
  1 S  6.44360830E+00  0.444635

  2 S  5.03315130E+00 -0.099967
  2 S  1.16959610E+00  0.399513
  2 S  3.80389000E-01  0.700115

  3 P  5.03315130E+00  0.155916
  3 P  1.16959610E+00  0.607684
  3 P  3.80389000E-01  0.391957



 Summary of "ao basis" -> "" (spherical)
 ------------------------------------------------------------------------------
       Tag                 Description            Shells   Functions and Types
 ---------------- ------------------------------  ------  ---------------------
 O                       user specified              3        5   2s1p


                                 NWChem SCF Module
                                 -----------------



  ao basis        = "ao basis"
  functions       =    10
  atoms           =     2
  closed shells   =     8
  open shells     =     0
  charge          =   0.00
  wavefunction    = RHF 
  input vectors   = atomic
  output vectors  = ./O2.movecs
  use symmetry    = T
  symmetry adapt  = T


 Summary of "ao basis" -> "ao basis" (spherical)
 ------------------------------------------------------------------------------
       Tag                 Description            Shells   Functions and Types
 ---------------- ------------------------------  ------  ---------------------
 O                       user specified              3        5   2s1p


      Symmetry analysis of basis
      --------------------------

        a1g         3
        a1u         0
        a2g         0
        a2u         3
        b1g         0
        b1u         0
        b2g         0
        b2u         0
        eg          2
        eu          2

 ====================================
 Begin potential 1-e integrals
 ====================================
1epe          1   O  s     1   O  s         -64.12294000
1epe          2   O  s     1   O  s          -8.01260486
1epe          5   O  p     1   O  s          -0.07797460
1epe          6   O  s     1   O  s          -0.00000014
1epe          7   O  s     1   O  s          -0.78772570
1epe         10   O  p     1   O  s           1.33421091
1epe          1   O  s     2   O  s          -8.01260486
1epe          2   O  s     2   O  s         -12.54795533
1epe          5   O  p     2   O  s          -0.96762303
1epe          6   O  s     2   O  s          -0.78772570
1epe          7   O  s     2   O  s          -3.47791918
1epe         10   O  p     2   O  s           4.08086505
1epe          1   O  s     5   O  p          -0.07797460
1epe          2   O  s     5   O  p          -0.96762303
1epe          3   O  p     3   O  p         -12.28476040
1epe          4   O  p     4   O  p         -12.28476040
1epe          5   O  p     5   O  p         -12.85011308
1epe          6   O  s     5   O  p          -1.33421091
1epe          7   O  s     5   O  p          -4.08086505
1epe          8   O  p     3   O  p          -1.58726743
1epe          9   O  p     4   O  p          -1.58726743
1epe         10   O  p     5   O  p           4.05669823
1epe          1   O  s     6   O  s          -0.00000014
1epe          2   O  s     6   O  s          -0.78772570
1epe          5   O  p     6   O  s          -1.33421091
1epe          6   O  s     6   O  s         -64.12294000
1epe          7   O  s     6   O  s          -8.01260486
1epe         10   O  p     6   O  s           0.07797460
1epe          1   O  s     7   O  s          -0.78772570
1epe          2   O  s     7   O  s          -3.47791918
1epe          5   O  p     7   O  s          -4.08086505
1epe          6   O  s     7   O  s          -8.01260486
1epe          7   O  s     7   O  s         -12.54795533
1epe         10   O  p     7   O  s           0.96762303
1epe          1   O  s    10   O  p           1.33421091
1epe          2   O  s    10   O  p           4.08086505
1epe          3   O  p     8   O  p          -1.58726743
1epe          4   O  p     9   O  p          -1.58726743
1epe          5   O  p    10   O  p           4.05669823
1epe          6   O  s    10   O  p           0.07797460
1epe          7   O  s    10   O  p           0.96762303
1epe          8   O  p     8   O  p         -12.28476040
1epe          9   O  p     9   O  p         -12.28476040
1epe         10   O  p    10   O  p         -12.85011308
 ====================================
 End potential 1-e integrals
 ====================================

 Forming initial guess at       0.0s


      Superposition of Atomic Density Guess
      -------------------------------------

 Sum of atomic energies:        -147.55558445

      Non-variational initial energy
      ------------------------------

 Total energy =    -147.355809
 1-e energy   =    -261.708845
 2-e energy   =      86.317155
 HOMO         =      -0.007267
 LUMO         =      -0.007267


 !!!!!!!!!!!!!!!!!!!!!!!!!!!!!!!!!!!!!!!!!!!!!!!!!!!!!!!!!!!!!!!!!!!!!!
 Warning - the HOMO and LUMO are degenerate and you are using symmetry.
 This can lead to non-variational energies and poor convergence.
 Modify the initial guess, or use an open-shell wavefunction, or turn
 off symmetry.
 !!!!!!!!!!!!!!!!!!!!!!!!!!!!!!!!!!!!!!!!!!!!!!!!!!!!!!!!!!!!!!!!!!!!!!


      Symmetry analysis of molecular orbitals - initial
      -------------------------------------------------

  Numbering of irreducible representations: 

     1 a1g         2 a1u         3 a2g         4 a2u         5 b1g     
     6 b1u         7 b2g         8 b2u         9 eg         10 eu      

  Orbital symmetries:

     1 a1g         2 a2u         3 a1g         4 a2u         5 a1g     
     6 eu          7 eu          8 eg          9 eg         10 a2u     


 Starting SCF solution at       0.0s



 ----------------------------------------------
         Quadratically convergent ROHF

 Convergence threshold     :          1.000E-04
 Maximum no. of iterations :           30
 Final Fock-matrix accuracy:          1.000E-07
 ----------------------------------------------

 Warning: symmetry breaking in RHF:   0.58957637865862544     

 #quartets = 1.550D+02 #integrals = 3.940D+02 #direct =  0.0% #cached =100.0%


 Integral file          = ./O2.aoints.0
 Record size in doubles =  65536        No. of integs per rec  =  43688
 Max. records in memory =      2        Max. records in file   = 712545
 No. of bits per label  =      8        No. of bits per value  =     64


              iter       energy          gnorm     gmax       time
             ----- ------------------- --------- --------- --------
                 1     -147.2878607074  2.36D-01  1.94D-01      0.5

 *** WARNING: SMALL OCC-VIRT ORBITAL ENERGY DIFFERENCE DETECTED
 (Including frequency factor for response)
 This is going to lead to diverging respose properties
 I have adjusted the denominator to a value of 1E-5
 Warning: symmetry breaking in RHF:   0.58957637865862489     
 Warning: symmetry breaking in RHF:   0.58957637865862489     
                 2     -147.2915338939  4.26D-02  4.26D-02      0.5

 *** WARNING: SMALL OCC-VIRT ORBITAL ENERGY DIFFERENCE DETECTED
 (Including frequency factor for response)
 This is going to lead to diverging respose properties
 I have adjusted the denominator to a value of 1E-5
 Warning: symmetry breaking in RHF:   0.58957637865862489     
                 3     -147.2915454789  5.67D-04  5.66D-04      0.5

 *** WARNING: SMALL OCC-VIRT ORBITAL ENERGY DIFFERENCE DETECTED
 (Including frequency factor for response)
 This is going to lead to diverging respose properties
 I have adjusted the denominator to a value of 1E-5

 *** WARNING: SMALL OCC-VIRT ORBITAL ENERGY DIFFERENCE DETECTED
 (Including frequency factor for response)
 This is going to lead to diverging respose properties
 I have adjusted the denominator to a value of 1E-5
 Warning: symmetry breaking in RHF:   0.58957637865862489     
                 4     -147.2915455092  1.07D-08  1.05D-08      0.5


       Final RHF  results 
       ------------------ 

         Total SCF energy =   -147.291545509151
      One-electron energy =   -260.231265873408
      Two-electron energy =     84.903839622551
 Nuclear repulsion energy =     28.035880741706

        Time for solution =      0.1s



       Symmetry analysis of molecular orbitals - final
       -----------------------------------------------

  Numbering of irreducible representations: 

     1 a1g         2 a1u         3 a2g         4 a2u         5 b1g     
     6 b1u         7 b2g         8 b2u         9 eg         10 eu      

  Orbital symmetries:

     1 a2u         2 a1g         3 a1g         4 a2u         5 a1g     
     6 eu          7 eu          8 eg          9 eg         10 a2u     

             Final eigenvalues
             -----------------

              1      
    1  -20.4254
    2  -20.4248
    3   -1.5545
    4   -0.9928
    5   -0.5822
    6   -0.5806
    7   -0.5806
    8   -0.0710
    9   -0.0710
   10    0.7337

                       ROHF Final Molecular Orbital Analysis
                       -------------------------------------

 Vector    2  Occ=2.000000D+00  E=-2.042481D+01  Symmetry=a1g
              MO Center=  1.1D-19, -6.8D-20, -1.3D-16, r^2= 3.8D-01
   Bfn.  Coefficient  Atom+Function         Bfn.  Coefficient  Atom+Function  
  ----- ------------  ---------------      ----- ------------  ---------------
     1      0.703662  1 O  s                  6      0.703662  2 O  s          

 Vector    3  Occ=2.000000D+00  E=-1.554490D+00  Symmetry=a1g
              MO Center= -6.1D-35,  3.9D-35, -1.4D-17, r^2= 5.2D-01
   Bfn.  Coefficient  Atom+Function         Bfn.  Coefficient  Atom+Function  
  ----- ------------  ---------------      ----- ------------  ---------------
     2      0.574073  1 O  s                  7      0.574073  2 O  s          
     5      0.171551  1 O  pz                10     -0.171551  2 O  pz         
     1     -0.169175  1 O  s                  6     -0.169175  2 O  s          

 Vector    4  Occ=2.000000D+00  E=-9.927711D-01  Symmetry=a2u
              MO Center= -4.9D-46,  8.7D-46, -7.6D-17, r^2= 1.0D+00
   Bfn.  Coefficient  Atom+Function         Bfn.  Coefficient  Atom+Function  
  ----- ------------  ---------------      ----- ------------  ---------------
     2      0.776240  1 O  s                  7     -0.776240  2 O  s          
     1     -0.185234  1 O  s                  6      0.185234  2 O  s          
     5     -0.158138  1 O  pz                10     -0.158138  2 O  pz         

 Vector    5  Occ=2.000000D+00  E=-5.822366D-01  Symmetry=a1g
              MO Center=  3.1D-16, -2.0D-16,  3.9D-16, r^2= 1.0D+00
   Bfn.  Coefficient  Atom+Function         Bfn.  Coefficient  Atom+Function  
  ----- ------------  ---------------      ----- ------------  ---------------
     5      0.615105  1 O  pz                10     -0.615105  2 O  pz         
     2     -0.330317  1 O  s                  7     -0.330317  2 O  s          

 Vector    6  Occ=2.000000D+00  E=-5.805588D-01  Symmetry=eu
              MO Center= -9.3D-17,  2.7D-16,  2.8D-17, r^2= 7.6D-01
   Bfn.  Coefficient  Atom+Function         Bfn.  Coefficient  Atom+Function  
  ----- ------------  ---------------      ----- ------------  ---------------
     4      0.622878  1 O  py                 9      0.622878  2 O  py         
     3     -0.214372  1 O  px                 8     -0.214372  2 O  px         

 Vector    7  Occ=2.000000D+00  E=-5.805588D-01  Symmetry=eu
              MO Center= -2.1D-16, -7.4D-17,  3.5D-17, r^2= 7.6D-01
   Bfn.  Coefficient  Atom+Function         Bfn.  Coefficient  Atom+Function  
  ----- ------------  ---------------      ----- ------------  ---------------
     3      0.622878  1 O  px                 8      0.622878  2 O  px         
     4      0.214372  1 O  py                 9      0.214372  2 O  py         

 Vector    8  Occ=2.000000D+00  E=-7.095611D-02  Symmetry=eg
              MO Center= -1.3D-24,  9.8D-23, -1.7D-16, r^2= 8.0D-01
   Bfn.  Coefficient  Atom+Function         Bfn.  Coefficient  Atom+Function  
  ----- ------------  ---------------      ----- ------------  ---------------
     4      0.767911  1 O  py                 9     -0.767911  2 O  py         

 Vector    9  Occ=0.000000D+00  E=-7.095611D-02  Symmetry=eg
              MO Center=  7.0D-19,  9.6D-21,  1.6D-17, r^2= 8.0D-01
   Bfn.  Coefficient  Atom+Function         Bfn.  Coefficient  Atom+Function  
  ----- ------------  ---------------      ----- ------------  ---------------
     3      0.767911  1 O  px                 8     -0.767911  2 O  px         

 Vector   10  Occ=0.000000D+00  E= 7.336848D-01  Symmetry=a2u
              MO Center= -7.0D-19, -9.7D-21, -1.1D-16, r^2= 5.9D-01
   Bfn.  Coefficient  Atom+Function         Bfn.  Coefficient  Atom+Function  
  ----- ------------  ---------------      ----- ------------  ---------------
     5      0.944669  1 O  pz                10      0.944669  2 O  pz         
     2      0.581935  1 O  s                  7     -0.581935  2 O  s          


 center of mass
 --------------
 x =   0.00000000 y =   0.00000000 z =   0.00000000

 moments of inertia (a.u.)
 ------------------
          41.675742421863           0.000000000000           0.000000000000
           0.000000000000          41.675742421863           0.000000000000
           0.000000000000           0.000000000000           0.000000000000

  Mulliken analysis of the total density
  --------------------------------------

    Atom       Charge   Shell Charges
 -----------   ------   -------------------------------------------------------
    1 O    8     8.00   2.00  1.89  4.11
    2 O    8     8.00   2.00  1.89  4.11

       Multipole analysis of the density wrt the origin
       ------------------------------------------------

     L   x y z        total         open         nuclear
     -   - - -        -----         ----         -------
     0   0 0 0     -0.000000      0.000000     16.000000

     1   1 0 0      0.000000      0.000000      0.000000
     1   0 1 0     -0.000000      0.000000      0.000000
     1   0 0 1      0.000000      0.000000      0.000000

     2   2 0 0     -5.752408      0.000000      0.000000
     2   1 1 0      0.015038      0.000000      0.000000
     2   1 0 1     -0.000000      0.000000      0.000000
     2   0 2 0     -6.845774      0.000000      0.000000
     2   0 1 1     -0.000000      0.000000      0.000000
     2   0 0 2     -7.223915      0.000000     20.844502


 Parallel integral file used       1 records with       0 large values


 Task  times  cpu:        0.1s     wall:        0.1s
 Summary of allocated global arrays
-----------------------------------
  No active global arrays



                         GA Statistics for process    0
                         ------------------------------

       create   destroy   get      put      acc     scatter   gather  read&inc
calls:  233      233     2617     1224     1500        0        0      109     
number of processes/call 1.00e+00 1.00e+00 1.00e+00 0.00e+00 0.00e+00
bytes total:             4.11e+05 1.82e+05 2.76e+05 0.00e+00 0.00e+00 8.72e+02
bytes remote:            0.00e+00 0.00e+00 0.00e+00 0.00e+00 0.00e+00 0.00e+00
Max memory consumed for GA by this process: 10400 bytes
MA_summarize_allocated_blocks: starting scan ...
MA_summarize_allocated_blocks: scan completed: 0 heap blocks, 0 stack blocks
MA usage statistics:

	allocation statistics:
					      heap	     stack
					      ----	     -----
	current number of blocks	         0	         0
	maximum number of blocks	        18	        14
	current total bytes		         0	         0
	maximum total bytes		   1054728	  22509224
	maximum total K-bytes		      1055	     22510
	maximum total M-bytes		         2	        23


                                NWChem Input Module
                                -------------------





                                     CITATION
                                     --------
                Please cite the following reference when publishing
                           results obtained with NWChem:

                 M. Valiev, E.J. Bylaska, N. Govind, K. Kowalski,
              T.P. Straatsma, H.J.J. van Dam, D. Wang, J. Nieplocha,
                        E. Apra, T.L. Windus, W.A. de Jong
                 "NWChem: a comprehensive and scalable open-source
                  solution for large scale molecular simulations"
                      Comput. Phys. Commun. 181, 1477 (2010)
                           doi:10.1016/j.cpc.2010.04.018

                                      AUTHORS
                                      -------
          E. Apra, E. J. Bylaska, W. A. de Jong, N. Govind, K. Kowalski,
       T. P. Straatsma, M. Valiev, H. J. J. van Dam, D. Wang, T. L. Windus,
        J. Hammond, J. Autschbach, K. Bhaskaran-Nair, J. Brabec, K. Lopata,
       S. A. Fischer, S. Krishnamoorthy, W. Ma, M. Klemm, O. Villa, Y. Chen,
    V. Anisimov, F. Aquino, S. Hirata, M. T. Hackler, T. Risthaus, M. Malagoli,
       A. Marenich, A. Otero-de-la-Roza, J. Mullin, P. Nichols, R. Peverati,
     J. Pittner, Y. Zhao, P.-D. Fan, A. Fonari, M. Williamson, R. J. Harrison,
       J. R. Rehr, M. Dupuis, D. Silverstein, D. M. A. Smith, J. Nieplocha,
        V. Tipparaju, M. Krishnan, B. E. Van Kuiken, A. Vazquez-Mayagoitia,
        L. Jensen, M. Swart, Q. Wu, T. Van Voorhis, A. A. Auer, M. Nooijen,
      L. D. Crosby, E. Brown, G. Cisneros, G. I. Fann, H. Fruchtl, J. Garza,
        K. Hirao, R. A. Kendall, J. A. Nichols, K. Tsemekhman, K. Wolinski,
     J. Anchell, D. E. Bernholdt, P. Borowski, T. Clark, D. Clerc, H. Dachsel,
   M. J. O. Deegan, K. Dyall, D. Elwood, E. Glendening, M. Gutowski, A. C. Hess,
         J. Jaffe, B. G. Johnson, J. Ju, R. Kobayashi, R. Kutteh, Z. Lin,
   R. Littlefield, X. Long, B. Meng, T. Nakajima, S. Niu, L. Pollack, M. Rosing,
   K. Glaesemann, G. Sandrone, M. Stave, H. Taylor, G. Thomas, J. H. van Lenthe,
                               A. T. Wong, Z. Zhang.

 Total times  cpu:        0.1s     wall:        0.1s
