[Molden Format]
[Atoms] Angs
  C   1   6    0.00000000    0.00000000    0.00000000
  H   2   1    1.18693526    1.18693526   -1.18693526
  H   3   1   -1.18693526   -1.18693526   -1.18693526
  H   4   1    1.18693526   -1.18693526    1.18693526
  H   5   1   -1.18693526    1.18693526    1.18693526
[5D]
[GTO]
   1
 s  3
 7.16168370e+01  1.54328970e-01
 1.30450960e+01  5.35328140e-01
 3.53051220e+00  4.44634540e-01
 s  3
 2.94124940e+00  -9.99672300e-02
 6.83483100e-01  3.99512830e-01
 2.22289900e-01  7.00115470e-01
 p  3
 2.94124940e+00  1.55916270e-01
 6.83483100e-01  6.07683720e-01
 2.22289900e-01  3.91957390e-01

   2
 s  3
 3.42525091e+00  1.54328970e-01
 6.23913730e-01  5.35328140e-01
 1.68855400e-01  4.44634540e-01

   3
 s  3
 3.42525091e+00  1.54328970e-01
 6.23913730e-01  5.35328140e-01
 1.68855400e-01  4.44634540e-01

   4
 s  3
 3.42525091e+00  1.54328970e-01
 6.23913730e-01  5.35328140e-01
 1.68855400e-01  4.44634540e-01

   5
 s  3
 3.42525091e+00  1.54328970e-01
 6.23913730e-01  5.35328140e-01
 1.68855400e-01  4.44634540e-01

[MO]
Sym=C1
Ene=  -300.1446932
Spin=Alpha
Occup=2.00000000
   1  -0.99194843
   2  -0.03812670
   3  -0.00000000
   4  -0.00000000
   5  -0.00000000
   6   0.00694779
   7   0.00694779
   8   0.00694779
   9   0.00694779
Sym=C1
Ene=   -24.7505642
Spin=Alpha
Occup=2.00000000
   1  -0.22124434
   2   0.62894724
   3  -0.00000000
   4   0.00000000
   5  -0.00000000
   6   0.18070622
   7   0.18070622
   8   0.18070622
   9   0.18070622
Sym=C1
Ene=   -14.1108486
Spin=Alpha
Occup=2.00000000
   1   0.00000000
   2  -0.00000000
   3  -0.42955178
   4  -0.37109114
   5   0.06510842
   6  -0.45657448
   7   0.38790155
   8   0.00350586
   9   0.06516707
Sym=C1
Ene=   -14.1108486
Spin=Alpha
Occup=2.00000000
   1   0.00000000
   2  -0.00000000
   3   0.33975784
   4  -0.42421002
   5  -0.17627519
   6   0.04842504
   7   0.13750076
   8   0.30993365
   9  -0.49585945
Sym=C1
Ene=   -14.1108486
Spin=Alpha
Occup=2.00000000
   1  -0.00000000
   2   0.00000000
   3   0.16282615
   4  -0.09380669
   5   0.53958357
   6  -0.24816313
   7  -0.32096123
   8   0.41990359
   9   0.14922077
Sym=C1
Ene=    19.4528153
Spin=Alpha
Occup=0.00000000
   1  -0.00000000
   2   0.00000000
   3  -1.02985492
   4  -0.39474631
   5   0.01032037
   6   0.79567216
   7  -0.78422675
   8   0.34644863
   9  -0.35789403
Sym=C1
Ene=    19.4528153
Spin=Alpha
Occup=0.00000000
   1   0.00000000
   2  -0.00000000
   3  -0.39478775
   4   1.02863244
   5  -0.05089461
   6  -0.37969182
   7   0.32324912
   8   0.81751591
   9  -0.76107321
Sym=C1
Ene=    19.4528153
Spin=Alpha
Occup=0.00000000
   1  -0.00000000
   2   0.00000000
   3   0.00859011
   4  -0.05121505
   5  -1.10174205
   6  -0.58728644
   7  -0.63455798
   8   0.57775991
   9   0.64408451
Sym=C1
Ene=    20.5079753
Spin=Alpha
Occup=0.00000000
   1   0.25187319
   2  -1.62003754
   3  -0.00000000
   4  -0.00000000
   5  -0.00000000
   6   0.66442178
   7   0.66442178
   8   0.66442178
   9   0.66442178

