 argument  1 = h2o.nw
                                         
                                         


              Northwest Computational Chemistry Package (NWChem) 6.6
              ------------------------------------------------------


                    Environmental Molecular Sciences Laboratory
                       Pacific Northwest National Laboratory
                                Richland, WA 99352

                              Copyright (c) 1994-2015
                       Pacific Northwest National Laboratory
                            Battelle Memorial Institute

             NWChem is an open-source computational chemistry package
                        distributed under the terms of the
                      Educational Community License (ECL) 2.0
             A copy of the license is included with this distribution
                              in the LICENSE.TXT file

                                  ACKNOWLEDGMENT
                                  --------------

            This software and its documentation were developed at the
            EMSL at Pacific Northwest National Laboratory, a multiprogram
            national laboratory, operated for the U.S. Department of Energy
            by Battelle under Contract Number DE-AC05-76RL01830. Support
            for this work was provided by the Department of Energy Office
            of Biological and Environmental Research, Office of Basic
            Energy Sciences, and the Office of Advanced Scientific Computing.


           Job information
           ---------------

    hostname        = avo
    program         = nwchem
    date            = Tue Nov  1 22:09:49 2016

    compiled        = Пт_ноя_20_00:03:40_2015
    source          = /opt/nwchem/nwchem-6.6
    nwchem branch   = 6.6
    nwchem revision = 27746
    ga revision     = 10594
    input           = h2o.nw
    prefix          = h2o.
    data base       = ./h2o.db
    status          = startup
    nproc           =        1
    time left       =     -1s



           Memory information
           ------------------

    heap     =   46991804 doubles =    358.5 Mbytes
    stack    =   46991809 doubles =    358.5 Mbytes
    global   =   93983616 doubles =    717.0 Mbytes (distinct from heap & stack)
    total    =  187967229 doubles =   1434.1 Mbytes
    verify   = yes
    hardfail = no 


           Directory information
           ---------------------

  0 permanent = .
  0 scratch   = .




                                NWChem Input Module
                                -------------------




 Summary of "ao basis" -> "" (cartesian)
 ------------------------------------------------------------------------------
       Tag                 Description            Shells   Functions and Types
 ---------------- ------------------------------  ------  ---------------------
 *                          cc-pvdz                   on all atoms 



 Scaling coordinates for geometry "geometry" by  1.889725989
 (inverse scale =  0.529177249)

 C2V symmetry detected

          ------
          auto-z
          ------


                             Geometry "geometry" -> ""
                             -------------------------

 Output coordinates in angstroms (scale by  1.889725989 to convert to a.u.)

  No.       Tag          Charge          X              Y              Z
 ---- ---------------- ---------- -------------- -------------- --------------
    1 O                    8.0000     0.00000000     0.00000000    -0.13544600
    2 H                    1.0000    -0.86681000     0.00000000     0.54178400
    3 H                    1.0000     0.86681000     0.00000000     0.54178400

      Atomic Mass 
      ----------- 

      O                 15.994910
      H                  1.007825


 Effective nuclear repulsion energy (a.u.)       8.0023675500

            Nuclear Dipole moment (a.u.) 
            ----------------------------
        X                 Y               Z
 ---------------- ---------------- ----------------
     0.0000000000     0.0000000000     0.0000000000

      Symmetry information
      --------------------

 Group name             C2v       
 Group number             16
 Group order               4
 No. of unique centers     2

      Symmetry unique atoms

     1    2



                                Z-matrix (autoz)
                                -------- 

 Units are Angstrom for bonds and degrees for angles

      Type          Name      I     J     K     L     M      Value
      ----------- --------  ----- ----- ----- ----- ----- ----------
    1 Stretch                  1     2                       1.10000
    2 Stretch                  1     3                       1.10000
    3 Bend                     2     1     3               103.99969


            XYZ format geometry
            -------------------
     3
 geometry
 O                     0.00000000     0.00000000    -0.13544600
 H                    -0.86681000     0.00000000     0.54178400
 H                     0.86681000     0.00000000     0.54178400

                      Basis "ao basis" -> "ao basis" (cartesian)
                      -----
  O (Oxygen)
  ----------
            Exponent  Coefficients 
       -------------- ---------------------------------------------------------
  1 S  1.17200000E+04  0.000710
  1 S  1.75900000E+03  0.005470
  1 S  4.00800000E+02  0.027837
  1 S  1.13700000E+02  0.104800
  1 S  3.70300000E+01  0.283062
  1 S  1.32700000E+01  0.448719
  1 S  5.02500000E+00  0.270952
  1 S  1.01300000E+00  0.015458

  2 S  1.17200000E+04 -0.000160
  2 S  1.75900000E+03 -0.001263
  2 S  4.00800000E+02 -0.006267
  2 S  1.13700000E+02 -0.025716
  2 S  3.70300000E+01 -0.070924
  2 S  1.32700000E+01 -0.165411
  2 S  5.02500000E+00 -0.116955
  2 S  1.01300000E+00  0.557368

  3 S  3.02300000E-01  1.000000

  4 P  1.77000000E+01  0.043018
  4 P  3.85400000E+00  0.228913
  4 P  1.04600000E+00  0.508728

  5 P  2.75300000E-01  1.000000

  6 D  1.18500000E+00  1.000000

  H (Hydrogen)
  ------------
            Exponent  Coefficients 
       -------------- ---------------------------------------------------------
  1 S  1.30100000E+01  0.019685
  1 S  1.96200000E+00  0.137977
  1 S  4.44600000E-01  0.478148

  2 S  1.22000000E-01  1.000000

  3 P  7.27000000E-01  1.000000



 Summary of "ao basis" -> "ao basis" (cartesian)
 ------------------------------------------------------------------------------
       Tag                 Description            Shells   Functions and Types
 ---------------- ------------------------------  ------  ---------------------
 O                          cc-pvdz                  6       15   3s2p1d
 H                          cc-pvdz                  3        5   2s1p


                                 NWChem SCF Module
                                 -----------------



  ao basis        = "ao basis"
  functions       =    25
  atoms           =     3
  closed shells   =     5
  open shells     =     0
  charge          =   0.00
  wavefunction    = RHF 
  input vectors   = atomic
  output vectors  = ./h2o.movecs
  use symmetry    = T
  symmetry adapt  = T


 Summary of "ao basis" -> "ao basis" (cartesian)
 ------------------------------------------------------------------------------
       Tag                 Description            Shells   Functions and Types
 ---------------- ------------------------------  ------  ---------------------
 O                          cc-pvdz                  6       15   3s2p1d
 H                          cc-pvdz                  3        5   2s1p


      Symmetry analysis of basis
      --------------------------

        a1         12
        a2          2
        b1          7
        b2          4

 ====================================
 Begin potential 1-e integrals
 ====================================
1epe          1   O  s     1   O  s         -62.06990756
1epe          2   O  s     1   O  s          23.78780697
1epe          3   O  s     1   O  s          -6.06936199
1epe          6   O  p     1   O  s          -0.02335161
1epe          9   O  p     1   O  s          -0.00440201
1epe         10   O  d     1   O  s          -1.25742558
1epe         13   O  d     1   O  s          -1.25487647
1epe         15   O  d     1   O  s          -1.25643248
1epe         16   H  s     1   O  s          -1.01926327
1epe         17   H  s     1   O  s          -1.86282050
1epe         18   H  p     1   O  s          -1.50594269
1epe         20   H  p     1   O  s           1.17588652
1epe         21   H  s     1   O  s          -1.01926327
1epe         22   H  s     1   O  s          -1.86282050
1epe         23   H  p     1   O  s           1.50594269
1epe         25   H  p     1   O  s           1.17588652
1epe          1   O  s     2   O  s          23.78780697
1epe          2   O  s     2   O  s         -20.49660368
1epe          3   O  s     2   O  s          -5.41659077
1epe          6   O  p     2   O  s          -0.13023264
1epe          9   O  p     2   O  s          -0.09083031
1epe         10   O  d     2   O  s          -5.83413813
1epe         13   O  d     2   O  s          -5.77157704
1epe         15   O  d     2   O  s          -5.80976521
1epe         16   H  s     2   O  s          -1.52258742
1epe         17   H  s     2   O  s          -2.21150986
1epe         18   H  p     2   O  s          -1.98231889
1epe         20   H  p     2   O  s           1.53426009
1epe         21   H  s     2   O  s          -1.52258742
1epe         22   H  s     2   O  s          -2.21150986
1epe         23   H  p     2   O  s           1.98231889
1epe         25   H  p     2   O  s           1.53426009
1epe          1   O  s     3   O  s          -6.06936199
1epe          2   O  s     3   O  s          -5.41659077
1epe          3   O  s     3   O  s          -7.95978079
1epe          6   O  p     3   O  s          -0.13834884
1epe          9   O  p     3   O  s          -0.21387871
1epe         10   O  d     3   O  s          -5.55513643
1epe         13   O  d     3   O  s          -5.46480049
1epe         15   O  d     3   O  s          -5.51994282
1epe         16   H  s     3   O  s          -2.76522371
1epe         17   H  s     3   O  s          -3.88972638
1epe         18   H  p     3   O  s          -2.48233479
1epe         20   H  p     3   O  s           1.90678760
1epe         21   H  s     3   O  s          -2.76522371
1epe         22   H  s     3   O  s          -3.88972638
1epe         23   H  p     3   O  s           2.48233479
1epe         25   H  p     3   O  s           1.90678760
1epe          1   O  s     6   O  p          -0.02335161
1epe          2   O  s     6   O  p          -0.13023264
1epe          3   O  s     6   O  p          -0.13834884
1epe          4   O  p     4   O  p         -12.72760530
1epe          5   O  p     5   O  p         -12.65719526
1epe          6   O  p     6   O  p         -12.70017454
1epe          7   O  p     4   O  p          -4.32662776
1epe          8   O  p     5   O  p          -4.25749849
1epe          9   O  p     6   O  p          -4.29969597
1epe         12   O  d     4   O  p          -0.08749527
1epe         14   O  d     5   O  p          -0.05741261
1epe         10   O  d     6   O  p          -0.08749527
1epe         13   O  d     6   O  p          -0.05741261
1epe         15   O  d     6   O  p          -0.19060072
1epe         16   H  s     4   O  p           1.42563079
1epe         16   H  s     6   O  p          -1.13659000
1epe         17   H  s     4   O  p           0.69221194
1epe         17   H  s     6   O  p          -0.59634568
1epe         18   H  p     4   O  p           1.62856269
1epe         20   H  p     4   O  p          -2.02923741
1epe         19   H  p     5   O  p          -0.97785229
1epe         18   H  p     6   O  p          -2.06631479
1epe         20   H  p     6   O  p           0.62320824
1epe         21   H  s     4   O  p          -1.42563079
1epe         21   H  s     6   O  p          -1.13659000
1epe         22   H  s     4   O  p          -0.69221194
1epe         22   H  s     6   O  p          -0.59634568
1epe         23   H  p     4   O  p           1.62856269
1epe         25   H  p     4   O  p           2.02923741
1epe         24   H  p     5   O  p          -0.97785229
1epe         23   H  p     6   O  p           2.06631479
1epe         25   H  p     6   O  p           0.62320824
1epe          1   O  s     9   O  p          -0.00440201
1epe          2   O  s     9   O  p          -0.09083031
1epe          3   O  s     9   O  p          -0.21387871
1epe          4   O  p     7   O  p          -4.32662776
1epe          5   O  p     8   O  p          -4.25749849
1epe          6   O  p     9   O  p          -4.29969597
1epe          7   O  p     7   O  p          -5.44454430
1epe          8   O  p     8   O  p          -5.23589637
1epe          9   O  p     9   O  p          -5.36325801
1epe         12   O  d     7   O  p          -0.09563806
1epe         14   O  d     8   O  p          -0.05066040
1epe         10   O  d     9   O  p          -0.09563806
1epe         13   O  d     9   O  p          -0.05066040
1epe         15   O  d     9   O  p          -0.17943621
1epe         16   H  s     7   O  p           2.57268089
1epe         16   H  s     9   O  p          -2.04604763
1epe         17   H  s     7   O  p           1.50930059
1epe         17   H  s     9   O  p          -1.30714383
1epe         18   H  p     7   O  p           0.61823949
1epe         20   H  p     7   O  p          -1.76158820
1epe         19   H  p     8   O  p          -1.66660815
1epe         18   H  p     9   O  p          -1.81919826
1epe         20   H  p     9   O  p          -0.28020343
1epe         21   H  s     7   O  p          -2.57268089
1epe         21   H  s     9   O  p          -2.04604763
1epe         22   H  s     7   O  p          -1.50930059
1epe         22   H  s     9   O  p          -1.30714383
1epe         23   H  p     7   O  p           0.61823949
1epe         25   H  p     7   O  p           1.76158820
1epe         24   H  p     8   O  p          -1.66660815
1epe         23   H  p     9   O  p           1.81919826
1epe         25   H  p     9   O  p          -0.28020343
1epe          1   O  s    10   O  d          -1.25742558
1epe          1   O  s    13   O  d          -1.25487647
1epe          1   O  s    15   O  d          -1.25643248
1epe          2   O  s    10   O  d          -5.83413813
1epe          2   O  s    13   O  d          -5.77157704
1epe          2   O  s    15   O  d          -5.80976521
1epe          3   O  s    10   O  d          -5.55513643
1epe          3   O  s    13   O  d          -5.46480049
1epe          3   O  s    15   O  d          -5.51994282
1epe          6   O  p    10   O  d          -0.08749527
1epe          4   O  p    12   O  d          -0.08749527
1epe          6   O  p    13   O  d          -0.05741261
1epe          5   O  p    14   O  d          -0.05741261
1epe          6   O  p    15   O  d          -0.19060072
1epe          9   O  p    10   O  d          -0.09563806
1epe          7   O  p    12   O  d          -0.09563806
1epe          9   O  p    13   O  d          -0.05066040
1epe          8   O  p    14   O  d          -0.05066040
1epe          9   O  p    15   O  d          -0.17943621
1epe         10   O  d    10   O  d          -8.44956920
1epe         13   O  d    10   O  d          -2.78430933
1epe         15   O  d    10   O  d          -2.81637832
1epe         11   O  d    11   O  d          -2.78430933
1epe         12   O  d    12   O  d          -2.81637832
1epe         10   O  d    13   O  d          -2.78430933
1epe         13   O  d    13   O  d          -8.28677084
1epe         15   O  d    13   O  d          -2.77571803
1epe         14   O  d    14   O  d          -2.77571803
1epe         10   O  d    15   O  d          -2.81637832
1epe         13   O  d    15   O  d          -2.77571803
1epe         15   O  d    15   O  d          -8.37889587
1epe         16   H  s    10   O  d          -2.02601761
1epe         16   H  s    12   O  d           0.68206221
1epe         16   H  s    13   O  d          -1.15672022
1epe         16   H  s    15   O  d          -1.70569918
1epe         17   H  s    10   O  d          -2.39039734
1epe         17   H  s    12   O  d           0.10934914
1epe         17   H  s    13   O  d          -2.22291952
1epe         17   H  s    15   O  d          -2.33873586
1epe         18   H  p    10   O  d          -1.85770184
1epe         20   H  p    10   O  d           2.54514625
1epe         19   H  p    11   O  d           0.70765197
1epe         18   H  p    12   O  d           0.89726446
1epe         20   H  p    12   O  d          -0.42569851
1epe         18   H  p    13   O  d          -1.42193924
1epe         20   H  p    13   O  d           1.10394679
1epe         19   H  p    14   O  d          -0.55988157
1epe         18   H  p    15   O  d          -2.58550444
1epe         20   H  p    15   O  d           0.88204949
1epe         21   H  s    10   O  d          -2.02601761
1epe         21   H  s    12   O  d          -0.68206221
1epe         21   H  s    13   O  d          -1.15672022
1epe         21   H  s    15   O  d          -1.70569918
1epe         22   H  s    10   O  d          -2.39039734
1epe         22   H  s    12   O  d          -0.10934914
1epe         22   H  s    13   O  d          -2.22291952
1epe         22   H  s    15   O  d          -2.33873586
1epe         23   H  p    10   O  d           1.85770184
1epe         25   H  p    10   O  d           2.54514625
1epe         24   H  p    11   O  d          -0.70765197
1epe         23   H  p    12   O  d           0.89726446
1epe         25   H  p    12   O  d           0.42569851
1epe         23   H  p    13   O  d           1.42193924
1epe         25   H  p    13   O  d           1.10394679
1epe         24   H  p    14   O  d          -0.55988157
1epe         23   H  p    15   O  d           2.58550444
1epe         25   H  p    15   O  d           0.88204949
1epe          1   O  s    16   H  s          -1.01926327
1epe          2   O  s    16   H  s          -1.52258742
1epe          3   O  s    16   H  s          -2.76522371
1epe          4   O  p    16   H  s           1.42563079
1epe          6   O  p    16   H  s          -1.13659000
1epe          7   O  p    16   H  s           2.57268089
1epe          9   O  p    16   H  s          -2.04604763
1epe         10   O  d    16   H  s          -2.02601761
1epe         12   O  d    16   H  s           0.68206221
1epe         13   O  d    16   H  s          -1.15672022
1epe         15   O  d    16   H  s          -1.70569918
1epe         16   H  s    16   H  s          -5.51746758
1epe         17   H  s    16   H  s          -3.43157358
1epe         18   H  p    16   H  s          -0.96198820
1epe         20   H  p    16   H  s           0.70579467
1epe         21   H  s    16   H  s          -0.45570212
1epe         22   H  s    16   H  s          -1.38798061
1epe         23   H  p    16   H  s           0.63781938
1epe         25   H  p    16   H  s           0.09554406
1epe          1   O  s    17   H  s          -1.86282050
1epe          2   O  s    17   H  s          -2.21150986
1epe          3   O  s    17   H  s          -3.88972638
1epe          4   O  p    17   H  s           0.69221194
1epe          6   O  p    17   H  s          -0.59634568
1epe          7   O  p    17   H  s           1.50930059
1epe          9   O  p    17   H  s          -1.30714383
1epe         10   O  d    17   H  s          -2.39039734
1epe         12   O  d    17   H  s           0.10934914
1epe         13   O  d    17   H  s          -2.22291952
1epe         15   O  d    17   H  s          -2.33873586
1epe         16   H  s    17   H  s          -3.43157358
1epe         17   H  s    17   H  s          -4.14074076
1epe         18   H  p    17   H  s          -0.86266931
1epe         20   H  p    17   H  s           0.63105130
1epe         21   H  s    17   H  s          -1.38798061
1epe         22   H  s    17   H  s          -2.51625147
1epe         23   H  p    17   H  s           1.16335344
1epe         25   H  p    17   H  s           0.31635629
1epe          1   O  s    18   H  p          -1.50594269
1epe          1   O  s    20   H  p           1.17588652
1epe          2   O  s    18   H  p          -1.98231889
1epe          2   O  s    20   H  p           1.53426009
1epe          3   O  s    18   H  p          -2.48233479
1epe          3   O  s    20   H  p           1.90678760
1epe          4   O  p    18   H  p           1.62856269
1epe          6   O  p    18   H  p          -2.06631479
1epe          5   O  p    19   H  p          -0.97785229
1epe          4   O  p    20   H  p          -2.02923741
1epe          6   O  p    20   H  p           0.62320824
1epe          7   O  p    18   H  p           0.61823949
1epe          9   O  p    18   H  p          -1.81919826
1epe          8   O  p    19   H  p          -1.66660815
1epe          7   O  p    20   H  p          -1.76158820
1epe          9   O  p    20   H  p          -0.28020343
1epe         10   O  d    18   H  p          -1.85770184
1epe         12   O  d    18   H  p           0.89726446
1epe         13   O  d    18   H  p          -1.42193924
1epe         15   O  d    18   H  p          -2.58550444
1epe         11   O  d    19   H  p           0.70765197
1epe         14   O  d    19   H  p          -0.55988157
1epe         10   O  d    20   H  p           2.54514625
1epe         12   O  d    20   H  p          -0.42569851
1epe         13   O  d    20   H  p           1.10394679
1epe         15   O  d    20   H  p           0.88204949
1epe         16   H  s    18   H  p          -0.96198820
1epe         16   H  s    20   H  p           0.70579467
1epe         17   H  s    18   H  p          -0.86266931
1epe         17   H  s    20   H  p           0.63105130
1epe         18   H  p    18   H  p          -5.32908874
1epe         20   H  p    18   H  p           0.43337928
1epe         19   H  p    19   H  p          -4.74505135
1epe         18   H  p    20   H  p           0.43337928
1epe         20   H  p    20   H  p          -5.08364626
1epe         21   H  s    18   H  p          -0.63781938
1epe         21   H  s    20   H  p           0.09554406
1epe         22   H  s    18   H  p          -1.16335344
1epe         22   H  s    20   H  p           0.31635629
1epe         23   H  p    18   H  p           1.01826325
1epe         25   H  p    18   H  p           0.13101059
1epe         24   H  p    19   H  p          -0.12275251
1epe         23   H  p    20   H  p          -0.13101059
1epe         25   H  p    20   H  p          -0.16688857
1epe          1   O  s    21   H  s          -1.01926327
1epe          2   O  s    21   H  s          -1.52258742
1epe          3   O  s    21   H  s          -2.76522371
1epe          4   O  p    21   H  s          -1.42563079
1epe          6   O  p    21   H  s          -1.13659000
1epe          7   O  p    21   H  s          -2.57268089
1epe          9   O  p    21   H  s          -2.04604763
1epe         10   O  d    21   H  s          -2.02601761
1epe         12   O  d    21   H  s          -0.68206221
1epe         13   O  d    21   H  s          -1.15672022
1epe         15   O  d    21   H  s          -1.70569918
1epe         16   H  s    21   H  s          -0.45570212
1epe         17   H  s    21   H  s          -1.38798061
1epe         18   H  p    21   H  s          -0.63781938
1epe         20   H  p    21   H  s           0.09554406
1epe         21   H  s    21   H  s          -5.51746758
1epe         22   H  s    21   H  s          -3.43157358
1epe         23   H  p    21   H  s           0.96198820
1epe         25   H  p    21   H  s           0.70579467
1epe          1   O  s    22   H  s          -1.86282050
1epe          2   O  s    22   H  s          -2.21150986
1epe          3   O  s    22   H  s          -3.88972638
1epe          4   O  p    22   H  s          -0.69221194
1epe          6   O  p    22   H  s          -0.59634568
1epe          7   O  p    22   H  s          -1.50930059
1epe          9   O  p    22   H  s          -1.30714383
1epe         10   O  d    22   H  s          -2.39039734
1epe         12   O  d    22   H  s          -0.10934914
1epe         13   O  d    22   H  s          -2.22291952
1epe         15   O  d    22   H  s          -2.33873586
1epe         16   H  s    22   H  s          -1.38798061
1epe         17   H  s    22   H  s          -2.51625147
1epe         18   H  p    22   H  s          -1.16335344
1epe         20   H  p    22   H  s           0.31635629
1epe         21   H  s    22   H  s          -3.43157358
1epe         22   H  s    22   H  s          -4.14074076
1epe         23   H  p    22   H  s           0.86266931
1epe         25   H  p    22   H  s           0.63105130
1epe          1   O  s    23   H  p           1.50594269
1epe          1   O  s    25   H  p           1.17588652
1epe          2   O  s    23   H  p           1.98231889
1epe          2   O  s    25   H  p           1.53426009
1epe          3   O  s    23   H  p           2.48233479
1epe          3   O  s    25   H  p           1.90678760
1epe          4   O  p    23   H  p           1.62856269
1epe          6   O  p    23   H  p           2.06631479
1epe          5   O  p    24   H  p          -0.97785229
1epe          4   O  p    25   H  p           2.02923741
1epe          6   O  p    25   H  p           0.62320824
1epe          7   O  p    23   H  p           0.61823949
1epe          9   O  p    23   H  p           1.81919826
1epe          8   O  p    24   H  p          -1.66660815
1epe          7   O  p    25   H  p           1.76158820
1epe          9   O  p    25   H  p          -0.28020343
1epe         10   O  d    23   H  p           1.85770184
1epe         12   O  d    23   H  p           0.89726446
1epe         13   O  d    23   H  p           1.42193924
1epe         15   O  d    23   H  p           2.58550444
1epe         11   O  d    24   H  p          -0.70765197
1epe         14   O  d    24   H  p          -0.55988157
1epe         10   O  d    25   H  p           2.54514625
1epe         12   O  d    25   H  p           0.42569851
1epe         13   O  d    25   H  p           1.10394679
1epe         15   O  d    25   H  p           0.88204949
1epe         16   H  s    23   H  p           0.63781938
1epe         16   H  s    25   H  p           0.09554406
1epe         17   H  s    23   H  p           1.16335344
1epe         17   H  s    25   H  p           0.31635629
1epe         18   H  p    23   H  p           1.01826325
1epe         20   H  p    23   H  p          -0.13101059
1epe         19   H  p    24   H  p          -0.12275251
1epe         18   H  p    25   H  p           0.13101059
1epe         20   H  p    25   H  p          -0.16688857
1epe         21   H  s    23   H  p           0.96198820
1epe         21   H  s    25   H  p           0.70579467
1epe         22   H  s    23   H  p           0.86266931
1epe         22   H  s    25   H  p           0.63105130
1epe         23   H  p    23   H  p          -5.32908874
1epe         25   H  p    23   H  p          -0.43337928
1epe         24   H  p    24   H  p          -4.74505135
1epe         23   H  p    25   H  p          -0.43337928
1epe         25   H  p    25   H  p          -5.08364626
 ====================================
 End potential 1-e integrals
 ====================================

 Forming initial guess at       0.0s


      Superposition of Atomic Density Guess
      -------------------------------------

 Sum of atomic energies:         -75.76222910

      Non-variational initial energy
      ------------------------------

 Total energy =     -75.663275
 1-e energy   =    -119.791303
 2-e energy   =      36.125660
 HOMO         =      -0.431976
 LUMO         =       0.048113


      Symmetry analysis of molecular orbitals - initial
      -------------------------------------------------

  Numbering of irreducible representations: 

     1 a1          2 a2          3 b1          4 b2      

  Orbital symmetries:

     1 a1          2 a1          3 b1          4 a1          5 b2      
     6 a1          7 b1          8 b1          9 a1         10 a1      
    11 b2         12 b1         13 a1         14 a2         15 b2      


 Starting SCF solution at       0.1s



 ----------------------------------------------
         Quadratically convergent ROHF

 Convergence threshold     :          1.000E-04
 Maximum no. of iterations :           30
 Final Fock-matrix accuracy:          1.000E-07
 ----------------------------------------------


 #quartets = 1.953D+03 #integrals = 1.805D+04 #direct =  0.0% #cached =100.0%


 Integral file          = ./h2o.aoints.0
 Record size in doubles =  65536        No. of integs per rec  =  43688
 Max. records in memory =      2        Max. records in file   = 629439
 No. of bits per label  =      8        No. of bits per value  =     64


              iter       energy          gnorm     gmax       time
             ----- ------------------- --------- --------- --------
                 1      -75.9488935234  8.50D-01  3.33D-01      0.3
                 2      -75.9868044392  2.12D-01  1.08D-01      0.3
                 3      -75.9899324577  5.22D-02  2.38D-02      0.3
                 4      -75.9901785044  1.81D-03  9.66D-04      0.3
                 5      -75.9901788377  7.83D-06  3.92D-06      0.3


       Final RHF  results 
       ------------------ 

         Total SCF energy =    -75.990178837748
      One-electron energy =   -120.958757080908
      Two-electron energy =     36.966210693142
 Nuclear repulsion energy =      8.002367550018

        Time for solution =      0.0s



       Symmetry analysis of molecular orbitals - final
       -----------------------------------------------

  Numbering of irreducible representations: 

     1 a1          2 a2          3 b1          4 b2      

  Orbital symmetries:

     1 a1          2 a1          3 b1          4 a1          5 b2      
     6 a1          7 b1          8 b1          9 a1         10 a1      
    11 b2         12 b1         13 a1         14 a2         15 b2      

             Final eigenvalues
             -----------------

              1      
    1  -20.5759
    2   -1.2779
    3   -0.6303
    4   -0.5421
    5   -0.4870
    6    0.1554
    7    0.2293
    8    0.7045
    9    0.7440
   10    1.1671
   11    1.1861
   12    1.2677
   13    1.4412
   14    1.4507
   15    1.6582

                       ROHF Final Molecular Orbital Analysis
                       -------------------------------------

 Vector    2  Occ=2.000000D+00  E=-1.277928D+00  Symmetry=a1
              MO Center=  6.7D-18,  5.4D-19,  2.0D-04, r^2= 5.2D-01
   Bfn.  Coefficient  Atom+Function         Bfn.  Coefficient  Atom+Function  
  ----- ------------  ---------------      ----- ------------  ---------------
     2      0.455509  1 O  s                  3      0.455935  1 O  s          

 Vector    3  Occ=2.000000D+00  E=-6.302824D-01  Symmetry=b1
              MO Center= -2.7D-17,  1.7D-18,  1.2D-01, r^2= 9.1D-01
   Bfn.  Coefficient  Atom+Function         Bfn.  Coefficient  Atom+Function  
  ----- ------------  ---------------      ----- ------------  ---------------
     4      0.474558  1 O  px                16     -0.299525  2 H  s          
    21      0.299525  3 H  s                  7      0.261894  1 O  px         

 Vector    4  Occ=2.000000D+00  E=-5.420540D-01  Symmetry=a1
              MO Center=  1.4D-18, -8.5D-19, -9.8D-02, r^2= 8.0D-01
   Bfn.  Coefficient  Atom+Function         Bfn.  Coefficient  Atom+Function  
  ----- ------------  ---------------      ----- ------------  ---------------
     6      0.530405  1 O  pz                 9      0.375301  1 O  pz         
     3     -0.318181  1 O  s                 16      0.208794  2 H  s          
    21      0.208794  3 H  s          

 Vector    5  Occ=2.000000D+00  E=-4.870033D-01  Symmetry=b2
              MO Center= -1.6D-16,  2.2D-16, -1.2D-01, r^2= 6.0D-01
   Bfn.  Coefficient  Atom+Function         Bfn.  Coefficient  Atom+Function  
  ----- ------------  ---------------      ----- ------------  ---------------
     5      0.637436  1 O  py                 8      0.499012  1 O  py         

 Vector    6  Occ=0.000000D+00  E= 1.554016D-01  Symmetry=a1
              MO Center=  2.2D-17, -6.1D-17,  6.1D-01, r^2= 2.9D+00
   Bfn.  Coefficient  Atom+Function         Bfn.  Coefficient  Atom+Function  
  ----- ------------  ---------------      ----- ------------  ---------------
     3      0.914173  1 O  s                 17     -0.765743  2 H  s          
    22     -0.765743  3 H  s                  9      0.394491  1 O  pz         
     6      0.244771  1 O  pz         

 Vector    7  Occ=0.000000D+00  E= 2.292918D-01  Symmetry=b1
              MO Center=  8.2D-16,  3.7D-19,  6.2D-01, r^2= 3.4D+00
   Bfn.  Coefficient  Atom+Function         Bfn.  Coefficient  Atom+Function  
  ----- ------------  ---------------      ----- ------------  ---------------
    17      1.182772  2 H  s                 22     -1.182772  3 H  s          
     7      0.655032  1 O  px                 4      0.328557  1 O  px         

 Vector    8  Occ=0.000000D+00  E= 7.045039D-01  Symmetry=b1
              MO Center= -1.4D-16, -7.7D-33,  3.7D-01, r^2= 2.2D+00
   Bfn.  Coefficient  Atom+Function         Bfn.  Coefficient  Atom+Function  
  ----- ------------  ---------------      ----- ------------  ---------------
    16      0.931789  2 H  s                 21     -0.931789  3 H  s          
    17     -0.870493  2 H  s                 22      0.870493  3 H  s          
     4      0.281736  1 O  px                 7      0.238458  1 O  px         
    12     -0.158770  1 O  dxz        

 Vector    9  Occ=0.000000D+00  E= 7.440409D-01  Symmetry=a1
              MO Center= -4.7D-16, -9.3D-17,  5.7D-01, r^2= 1.9D+00
   Bfn.  Coefficient  Atom+Function         Bfn.  Coefficient  Atom+Function  
  ----- ------------  ---------------      ----- ------------  ---------------
    16      0.869492  2 H  s                 21      0.869492  3 H  s          
    17     -0.647982  2 H  s                 22     -0.647982  3 H  s          
     3      0.389740  1 O  s                  6     -0.316561  1 O  pz         
     2     -0.254136  1 O  s                 18     -0.190533  2 H  px         
    23      0.190533  3 H  px         

 Vector   10  Occ=0.000000D+00  E= 1.167144D+00  Symmetry=a1
              MO Center=  1.4D-17,  4.4D-18, -1.4D-01, r^2= 1.2D+00
   Bfn.  Coefficient  Atom+Function         Bfn.  Coefficient  Atom+Function  
  ----- ------------  ---------------      ----- ------------  ---------------
     9      1.059229  1 O  pz                 6     -0.773561  1 O  pz         
    16     -0.318689  2 H  s                 21     -0.318689  3 H  s          
    20      0.306329  2 H  pz                25      0.306329  3 H  pz         
     3      0.208311  1 O  s                  2      0.172736  1 O  s          

 Vector   11  Occ=0.000000D+00  E= 1.186058D+00  Symmetry=b2
              MO Center= -2.5D-35,  6.5D-17, -5.4D-02, r^2= 1.1D+00
   Bfn.  Coefficient  Atom+Function         Bfn.  Coefficient  Atom+Function  
  ----- ------------  ---------------      ----- ------------  ---------------
     5      0.943314  1 O  py                 8     -0.928782  1 O  py         

 Vector   12  Occ=0.000000D+00  E= 1.267689D+00  Symmetry=b1
              MO Center=  3.8D-17, -7.4D-33, -1.4D-01, r^2= 1.6D+00
   Bfn.  Coefficient  Atom+Function         Bfn.  Coefficient  Atom+Function  
  ----- ------------  ---------------      ----- ------------  ---------------
     7      1.576181  1 O  px                 4     -0.792594  1 O  px         
    17      0.626815  2 H  s                 22     -0.626815  3 H  s          
    18      0.328629  2 H  px                23      0.328629  3 H  px         
    16      0.281589  2 H  s                 21     -0.281589  3 H  s          

 Vector   13  Occ=0.000000D+00  E= 1.441200D+00  Symmetry=a1
              MO Center=  3.3D-16, -3.0D-16,  8.0D-03, r^2= 1.5D+00
   Bfn.  Coefficient  Atom+Function         Bfn.  Coefficient  Atom+Function  
  ----- ------------  ---------------      ----- ------------  ---------------
     3      1.186421  1 O  s                  2     -0.732901  1 O  s          
     9     -0.512746  1 O  pz                20      0.441104  2 H  pz         
    25      0.441104  3 H  pz                18      0.343751  2 H  px         
    23     -0.343751  3 H  px                 1     -0.336347  1 O  s          
    10     -0.255806  1 O  dxx               17     -0.242806  2 H  s          

 Vector   14  Occ=0.000000D+00  E= 1.450715D+00  Symmetry=a2
              MO Center=  3.1D-15, -1.0D-16,  5.0D-01, r^2= 1.2D+00
   Bfn.  Coefficient  Atom+Function         Bfn.  Coefficient  Atom+Function  
  ----- ------------  ---------------      ----- ------------  ---------------
    19      0.681005  2 H  py                24     -0.681005  3 H  py         
    11     -0.249358  1 O  dxy        

 Vector   15  Occ=0.000000D+00  E= 1.658191D+00  Symmetry=b2
              MO Center= -2.2D-15,  2.4D-16,  3.1D-01, r^2= 1.4D+00
   Bfn.  Coefficient  Atom+Function         Bfn.  Coefficient  Atom+Function  
  ----- ------------  ---------------      ----- ------------  ---------------
    19     -0.734021  2 H  py                24     -0.734021  3 H  py         
     8      0.691976  1 O  py                14     -0.281767  1 O  dyz        
     5     -0.207039  1 O  py         


 center of mass
 --------------
 x =   0.00000000 y =   0.00000000 z =  -0.11272947

 moments of inertia (a.u.)
 ------------------
           2.931836553602           0.000000000000           0.000000000000
           0.000000000000           8.340134639058           0.000000000000
           0.000000000000           0.000000000000           5.408298085455

  Mulliken analysis of the total density
  --------------------------------------

    Atom       Charge   Shell Charges
 -----------   ------   -------------------------------------------------------
    1 O    8     8.44   2.00  0.85  0.94  2.71  1.93  0.01
    2 H    1     0.78   0.60  0.12  0.06
    3 H    1     0.78   0.60  0.12  0.06

       Multipole analysis of the density wrt the origin
       ------------------------------------------------

     L   x y z        total         open         nuclear
     -   - - -        -----         ----         -------
     0   0 0 0     -0.000000      0.000000     10.000000

     1   1 0 0      0.000000      0.000000      0.000000
     1   0 1 0     -0.000000      0.000000      0.000000
     1   0 0 1      0.856072      0.000000      0.000000

     2   2 0 0     -2.865829      0.000000      5.366307
     2   1 1 0     -0.000000      0.000000      0.000000
     2   1 0 1     -0.000000      0.000000      0.000000
     2   0 2 0     -5.465881      0.000000      0.000000
     2   0 1 1      0.000000      0.000000      0.000000
     2   0 0 2     -4.396564      0.000000      2.620535


 Parallel integral file used       1 records with       0 large values


 Task  times  cpu:        0.1s     wall:        0.1s
 Summary of allocated global arrays
-----------------------------------
  No active global arrays



                         GA Statistics for process    0
                         ------------------------------

       create   destroy   get      put      acc     scatter   gather  read&inc
calls:  332      332     3795     1701     2010        0        0      277     
number of processes/call 1.00e+00 1.00e+00 1.00e+00 0.00e+00 0.00e+00
bytes total:             2.20e+06 1.29e+06 7.34e+05 0.00e+00 0.00e+00 2.22e+03
bytes remote:            0.00e+00 0.00e+00 0.00e+00 0.00e+00 0.00e+00 0.00e+00
Max memory consumed for GA by this process: 65000 bytes
MA_summarize_allocated_blocks: starting scan ...
MA_summarize_allocated_blocks: scan completed: 0 heap blocks, 0 stack blocks
MA usage statistics:

	allocation statistics:
					      heap	     stack
					      ----	     -----
	current number of blocks	         0	         0
	maximum number of blocks	        18	        14
	current total bytes		         0	         0
	maximum total bytes		   1061792	  22509608
	maximum total K-bytes		      1062	     22510
	maximum total M-bytes		         2	        23


                                NWChem Input Module
                                -------------------





                                     CITATION
                                     --------
                Please cite the following reference when publishing
                           results obtained with NWChem:

                 M. Valiev, E.J. Bylaska, N. Govind, K. Kowalski,
              T.P. Straatsma, H.J.J. van Dam, D. Wang, J. Nieplocha,
                        E. Apra, T.L. Windus, W.A. de Jong
                 "NWChem: a comprehensive and scalable open-source
                  solution for large scale molecular simulations"
                      Comput. Phys. Commun. 181, 1477 (2010)
                           doi:10.1016/j.cpc.2010.04.018

                                      AUTHORS
                                      -------
          E. Apra, E. J. Bylaska, W. A. de Jong, N. Govind, K. Kowalski,
       T. P. Straatsma, M. Valiev, H. J. J. van Dam, D. Wang, T. L. Windus,
        J. Hammond, J. Autschbach, K. Bhaskaran-Nair, J. Brabec, K. Lopata,
       S. A. Fischer, S. Krishnamoorthy, W. Ma, M. Klemm, O. Villa, Y. Chen,
    V. Anisimov, F. Aquino, S. Hirata, M. T. Hackler, T. Risthaus, M. Malagoli,
       A. Marenich, A. Otero-de-la-Roza, J. Mullin, P. Nichols, R. Peverati,
     J. Pittner, Y. Zhao, P.-D. Fan, A. Fonari, M. Williamson, R. J. Harrison,
       J. R. Rehr, M. Dupuis, D. Silverstein, D. M. A. Smith, J. Nieplocha,
        V. Tipparaju, M. Krishnan, B. E. Van Kuiken, A. Vazquez-Mayagoitia,
        L. Jensen, M. Swart, Q. Wu, T. Van Voorhis, A. A. Auer, M. Nooijen,
      L. D. Crosby, E. Brown, G. Cisneros, G. I. Fann, H. Fruchtl, J. Garza,
        K. Hirao, R. A. Kendall, J. A. Nichols, K. Tsemekhman, K. Wolinski,
     J. Anchell, D. E. Bernholdt, P. Borowski, T. Clark, D. Clerc, H. Dachsel,
   M. J. O. Deegan, K. Dyall, D. Elwood, E. Glendening, M. Gutowski, A. C. Hess,
         J. Jaffe, B. G. Johnson, J. Ju, R. Kobayashi, R. Kutteh, Z. Lin,
   R. Littlefield, X. Long, B. Meng, T. Nakajima, S. Niu, L. Pollack, M. Rosing,
   K. Glaesemann, G. Sandrone, M. Stave, H. Taylor, G. Thomas, J. H. van Lenthe,
                               A. T. Wong, Z. Zhang.

 Total times  cpu:        0.1s     wall:        0.1s
