 argument  1 = h2o.nw
                                         
                                         


              Northwest Computational Chemistry Package (NWChem) 6.6
              ------------------------------------------------------


                    Environmental Molecular Sciences Laboratory
                       Pacific Northwest National Laboratory
                                Richland, WA 99352

                              Copyright (c) 1994-2015
                       Pacific Northwest National Laboratory
                            Battelle Memorial Institute

             NWChem is an open-source computational chemistry package
                        distributed under the terms of the
                      Educational Community License (ECL) 2.0
             A copy of the license is included with this distribution
                              in the LICENSE.TXT file

                                  ACKNOWLEDGMENT
                                  --------------

            This software and its documentation were developed at the
            EMSL at Pacific Northwest National Laboratory, a multiprogram
            national laboratory, operated for the U.S. Department of Energy
            by Battelle under Contract Number DE-AC05-76RL01830. Support
            for this work was provided by the Department of Energy Office
            of Biological and Environmental Research, Office of Basic
            Energy Sciences, and the Office of Advanced Scientific Computing.


           Job information
           ---------------

    hostname        = avo
    program         = nwchem
    date            = Tue Nov  1 08:15:33 2016

    compiled        = Пт_ноя_20_00:03:40_2015
    source          = /opt/nwchem/nwchem-6.6
    nwchem branch   = 6.6
    nwchem revision = 27746
    ga revision     = 10594
    input           = h2o.nw
    prefix          = h2o.
    data base       = ./h2o.db
    status          = startup
    nproc           =        1
    time left       =     -1s



           Memory information
           ------------------

    heap     =   46991802 doubles =    358.5 Mbytes
    stack    =   46991807 doubles =    358.5 Mbytes
    global   =   93983616 doubles =    717.0 Mbytes (distinct from heap & stack)
    total    =  187967225 doubles =   1434.1 Mbytes
    verify   = yes
    hardfail = no 


           Directory information
           ---------------------

  0 permanent = .
  0 scratch   = .




                                NWChem Input Module
                                -------------------




 Summary of "ao basis" -> "" (cartesian)
 ------------------------------------------------------------------------------
       Tag                 Description            Shells   Functions and Types
 ---------------- ------------------------------  ------  ---------------------
 *                           sto-3g                   on all atoms 



 Scaling coordinates for geometry "geometry" by  1.889725989
 (inverse scale =  0.529177249)

 C2V symmetry detected

          ------
          auto-z
          ------


                             Geometry "geometry" -> ""
                             -------------------------

 Output coordinates in angstroms (scale by  1.889725989 to convert to a.u.)

  No.       Tag          Charge          X              Y              Z
 ---- ---------------- ---------- -------------- -------------- --------------
    1 O                    8.0000     0.00000000     0.00000000    -0.13544600
    2 H                    1.0000    -0.86681000     0.00000000     0.54178400
    3 H                    1.0000     0.86681000     0.00000000     0.54178400

      Atomic Mass 
      ----------- 

      O                 15.994910
      H                  1.007825


 Effective nuclear repulsion energy (a.u.)       8.0023675500

            Nuclear Dipole moment (a.u.) 
            ----------------------------
        X                 Y               Z
 ---------------- ---------------- ----------------
     0.0000000000     0.0000000000     0.0000000000

      Symmetry information
      --------------------

 Group name             C2v       
 Group number             16
 Group order               4
 No. of unique centers     2

      Symmetry unique atoms

     1    2



                                Z-matrix (autoz)
                                -------- 

 Units are Angstrom for bonds and degrees for angles

      Type          Name      I     J     K     L     M      Value
      ----------- --------  ----- ----- ----- ----- ----- ----------
    1 Stretch                  1     2                       1.10000
    2 Stretch                  1     3                       1.10000
    3 Bend                     2     1     3               103.99969


            XYZ format geometry
            -------------------
     3
 geometry
 O                     0.00000000     0.00000000    -0.13544600
 H                    -0.86681000     0.00000000     0.54178400
 H                     0.86681000     0.00000000     0.54178400

                      Basis "ao basis" -> "ao basis" (cartesian)
                      -----
  O (Oxygen)
  ----------
            Exponent  Coefficients 
       -------------- ---------------------------------------------------------
  1 S  1.30709320E+02  0.154329
  1 S  2.38088610E+01  0.535328
  1 S  6.44360830E+00  0.444635

  2 S  5.03315130E+00 -0.099967
  2 S  1.16959610E+00  0.399513
  2 S  3.80389000E-01  0.700115

  3 P  5.03315130E+00  0.155916
  3 P  1.16959610E+00  0.607684
  3 P  3.80389000E-01  0.391957

  H (Hydrogen)
  ------------
            Exponent  Coefficients 
       -------------- ---------------------------------------------------------
  1 S  3.42525091E+00  0.154329
  1 S  6.23913730E-01  0.535328
  1 S  1.68855400E-01  0.444635



 Summary of "ao basis" -> "ao basis" (cartesian)
 ------------------------------------------------------------------------------
       Tag                 Description            Shells   Functions and Types
 ---------------- ------------------------------  ------  ---------------------
 O                           sto-3g                  3        5   2s1p
 H                           sto-3g                  1        1   1s


                                 NWChem SCF Module
                                 -----------------



  ao basis        = "ao basis"
  functions       =     7
  atoms           =     3
  closed shells   =     5
  open shells     =     0
  charge          =   0.00
  wavefunction    = RHF 
  input vectors   = atomic
  output vectors  = ./h2o.movecs
  use symmetry    = T
  symmetry adapt  = T


 Summary of "ao basis" -> "ao basis" (cartesian)
 ------------------------------------------------------------------------------
       Tag                 Description            Shells   Functions and Types
 ---------------- ------------------------------  ------  ---------------------
 O                           sto-3g                  3        5   2s1p
 H                           sto-3g                  1        1   1s


      Symmetry analysis of basis
      --------------------------

        a1          4
        a2          0
        b1          2
        b2          1

 ====================================
 Begin potential 1-e integrals
 ====================================
1epe          1   O  s     1   O  s         -61.58059534
1epe          2   O  s     1   O  s          -7.41082187
1epe          5   O  p     1   O  s          -0.01447389
1epe          6   H  s     1   O  s          -1.23168581
1epe          7   H  s     1   O  s          -1.23168581
1epe          1   O  s     2   O  s          -7.41082187
1epe          2   O  s     2   O  s         -10.00907121
1epe          5   O  p     2   O  s          -0.17689086
1epe          6   H  s     2   O  s          -2.97722730
1epe          7   H  s     2   O  s          -2.97722730
1epe          1   O  s     5   O  p          -0.01447389
1epe          2   O  s     5   O  p          -0.17689086
1epe          3   O  p     3   O  p          -9.98755001
1epe          4   O  p     4   O  p          -9.87587605
1epe          5   O  p     5   O  p          -9.94404341
1epe          6   H  s     3   O  p           1.82223714
1epe          6   H  s     5   O  p          -1.47179353
1epe          7   H  s     3   O  p          -1.82223714
1epe          7   H  s     5   O  p          -1.47179353
1epe          1   O  s     6   H  s          -1.23168581
1epe          2   O  s     6   H  s          -2.97722730
1epe          3   O  p     6   H  s           1.82223714
1epe          5   O  p     6   H  s          -1.47179353
1epe          6   H  s     6   H  s          -5.30020352
1epe          7   H  s     6   H  s          -1.06717133
1epe          1   O  s     7   H  s          -1.23168581
1epe          2   O  s     7   H  s          -2.97722730
1epe          3   O  p     7   H  s          -1.82223714
1epe          5   O  p     7   H  s          -1.47179353
1epe          6   H  s     7   H  s          -1.06717133
1epe          7   H  s     7   H  s          -5.30020352
 ====================================
 End potential 1-e integrals
 ====================================

 Forming initial guess at       0.0s


      Superposition of Atomic Density Guess
      -------------------------------------

 Sum of atomic energies:         -74.71095592

      Non-variational initial energy
      ------------------------------

 Total energy =     -74.363237
 1-e energy   =    -119.623166
 2-e energy   =      37.257562
 HOMO         =      -0.230976
 LUMO         =       0.355438


      Symmetry analysis of molecular orbitals - initial
      -------------------------------------------------

  Numbering of irreducible representations: 

     1 a1          2 a2          3 b1          4 b2      

  Orbital symmetries:

     1 a1          2 a1          3 b1          4 a1          5 b2      
     6 a1          7 b1      


 Starting SCF solution at       0.0s



 ----------------------------------------------
         Quadratically convergent ROHF

 Convergence threshold     :          1.000E-04
 Maximum no. of iterations :           30
 Final Fock-matrix accuracy:          1.000E-07
 ----------------------------------------------


 #quartets = 7.900D+01 #integrals = 1.640D+02 #direct =  0.0% #cached =100.0%


 Integral file          = ./h2o.aoints.0
 Record size in doubles =  65536        No. of integs per rec  =  43688
 Max. records in memory =      2        Max. records in file   = 629473
 No. of bits per label  =      8        No. of bits per value  =     64


              iter       energy          gnorm     gmax       time
             ----- ------------------- --------- --------- --------
                 1      -74.8897020007  7.16D-01  5.83D-01      0.2
                 2      -74.9409904084  1.35D-01  9.79D-02      0.2
                 3      -74.9420772099  4.28D-03  3.96D-03      0.2
                 4      -74.9420800872  1.22D-06  7.48D-07      0.2


       Final RHF  results 
       ------------------ 

         Total SCF energy =    -74.942080087200
      One-electron energy =   -120.199557296757
      Two-electron energy =     37.255109659539
 Nuclear repulsion energy =      8.002367550018

        Time for solution =      0.0s



       Symmetry analysis of molecular orbitals - final
       -----------------------------------------------

  Numbering of irreducible representations: 

     1 a1          2 a2          3 b1          4 b2      

  Orbital symmetries:

     1 a1          2 a1          3 b1          4 a1          5 b2      
     6 a1          7 b1      

             Final eigenvalues
             -----------------

              1      
    1  -20.2629
    2   -1.2097
    3   -0.5480
    4   -0.4365
    5   -0.3876
    6    0.4776
    7    0.5881

                       ROHF Final Molecular Orbital Analysis
                       -------------------------------------

 Vector    2  Occ=2.000000D+00  E=-1.209698D+00  Symmetry=a1
              MO Center= -1.3D-15,  1.8D-17,  1.3D-02, r^2= 5.5D-01
   Bfn.  Coefficient  Atom+Function         Bfn.  Coefficient  Atom+Function  
  ----- ------------  ---------------      ----- ------------  ---------------
     2      0.885735  1 O  s                  1     -0.239159  1 O  s          

 Vector    3  Occ=2.000000D+00  E=-5.479642D-01  Symmetry=b1
              MO Center=  1.2D-15,  2.2D-35,  1.8D-01, r^2= 9.5D-01
   Bfn.  Coefficient  Atom+Function         Bfn.  Coefficient  Atom+Function  
  ----- ------------  ---------------      ----- ------------  ---------------
     3      0.607285  1 O  px                 6     -0.452998  2 H  s          
     7      0.452998  3 H  s          

 Vector    4  Occ=2.000000D+00  E=-4.365280D-01  Symmetry=a1
              MO Center= -9.6D-16,  2.2D-18, -8.0D-02, r^2= 7.7D-01
   Bfn.  Coefficient  Atom+Function         Bfn.  Coefficient  Atom+Function  
  ----- ------------  ---------------      ----- ------------  ---------------
     5      0.747431  1 O  pz                 2     -0.479586  1 O  s          
     6      0.329471  2 H  s                  7      0.329471  3 H  s          

 Vector    5  Occ=2.000000D+00  E=-3.875870D-01  Symmetry=b2
              MO Center= -2.0D-32, -3.2D-17, -1.4D-01, r^2= 4.2D-01
   Bfn.  Coefficient  Atom+Function         Bfn.  Coefficient  Atom+Function  
  ----- ------------  ---------------      ----- ------------  ---------------
     4      1.000000  1 O  py         

 Vector    6  Occ=0.000000D+00  E= 4.776192D-01  Symmetry=a1
              MO Center=  5.0D-16,  1.2D-17,  3.9D-01, r^2= 1.2D+00
   Bfn.  Coefficient  Atom+Function         Bfn.  Coefficient  Atom+Function  
  ----- ------------  ---------------      ----- ------------  ---------------
     5      0.738490  1 O  pz                 6     -0.709849  2 H  s          
     7     -0.709849  3 H  s                  2      0.669579  1 O  s          

 Vector    7  Occ=0.000000D+00  E= 5.881385D-01  Symmetry=b1
              MO Center=  2.5D-16, -2.4D-32,  2.5D-01, r^2= 1.1D+00
   Bfn.  Coefficient  Atom+Function         Bfn.  Coefficient  Atom+Function  
  ----- ------------  ---------------      ----- ------------  ---------------
     3      0.919234  1 O  px                 6      0.732461  2 H  s          
     7     -0.732461  3 H  s          


 center of mass
 --------------
 x =   0.00000000 y =   0.00000000 z =  -0.11272947

 moments of inertia (a.u.)
 ------------------
           2.931836553602           0.000000000000           0.000000000000
           0.000000000000           8.340134639058           0.000000000000
           0.000000000000           0.000000000000           5.408298085455

  Mulliken analysis of the total density
  --------------------------------------

    Atom       Charge   Shell Charges
 -----------   ------   -------------------------------------------------------
    1 O    8     8.25   2.00  1.87  4.38
    2 H    1     0.87   0.87
    3 H    1     0.87   0.87

       Multipole analysis of the density wrt the origin
       ------------------------------------------------

     L   x y z        total         open         nuclear
     -   - - -        -----         ----         -------
     0   0 0 0     -0.000000      0.000000     10.000000

     1   1 0 0      0.000000      0.000000      0.000000
     1   0 1 0      0.000000      0.000000      0.000000
     1   0 0 1      0.603522      0.000000      0.000000

     2   2 0 0     -3.209445      0.000000      5.366307
     2   1 1 0     -0.000000      0.000000      0.000000
     2   1 0 1      0.000000      0.000000      0.000000
     2   0 2 0     -4.615178      0.000000      0.000000
     2   0 1 1      0.000000      0.000000      0.000000
     2   0 0 2     -4.006168      0.000000      2.620535


 Parallel integral file used       1 records with       0 large values


 Task  times  cpu:        0.0s     wall:        0.1s
 Summary of allocated global arrays
-----------------------------------
  No active global arrays



                         GA Statistics for process    0
                         ------------------------------

       create   destroy   get      put      acc     scatter   gather  read&inc
calls:  288      288     1610      755     1087        0        0      217     
number of processes/call 1.00e+00 1.00e+00 1.00e+00 0.00e+00 0.00e+00
bytes total:             1.65e+05 9.57e+04 5.49e+04 0.00e+00 0.00e+00 1.74e+03
bytes remote:            0.00e+00 0.00e+00 0.00e+00 0.00e+00 0.00e+00 0.00e+00
Max memory consumed for GA by this process: 5448 bytes
MA_summarize_allocated_blocks: starting scan ...
MA_summarize_allocated_blocks: scan completed: 0 heap blocks, 0 stack blocks
MA usage statistics:

	allocation statistics:
					      heap	     stack
					      ----	     -----
	current number of blocks	         0	         0
	maximum number of blocks	        18	        14
	current total bytes		         0	         0
	maximum total bytes		   1054232	  22509208
	maximum total K-bytes		      1055	     22510
	maximum total M-bytes		         2	        23


                                NWChem Input Module
                                -------------------





                                     CITATION
                                     --------
                Please cite the following reference when publishing
                           results obtained with NWChem:

                 M. Valiev, E.J. Bylaska, N. Govind, K. Kowalski,
              T.P. Straatsma, H.J.J. van Dam, D. Wang, J. Nieplocha,
                        E. Apra, T.L. Windus, W.A. de Jong
                 "NWChem: a comprehensive and scalable open-source
                  solution for large scale molecular simulations"
                      Comput. Phys. Commun. 181, 1477 (2010)
                           doi:10.1016/j.cpc.2010.04.018

                                      AUTHORS
                                      -------
          E. Apra, E. J. Bylaska, W. A. de Jong, N. Govind, K. Kowalski,
       T. P. Straatsma, M. Valiev, H. J. J. van Dam, D. Wang, T. L. Windus,
        J. Hammond, J. Autschbach, K. Bhaskaran-Nair, J. Brabec, K. Lopata,
       S. A. Fischer, S. Krishnamoorthy, W. Ma, M. Klemm, O. Villa, Y. Chen,
    V. Anisimov, F. Aquino, S. Hirata, M. T. Hackler, T. Risthaus, M. Malagoli,
       A. Marenich, A. Otero-de-la-Roza, J. Mullin, P. Nichols, R. Peverati,
     J. Pittner, Y. Zhao, P.-D. Fan, A. Fonari, M. Williamson, R. J. Harrison,
       J. R. Rehr, M. Dupuis, D. Silverstein, D. M. A. Smith, J. Nieplocha,
        V. Tipparaju, M. Krishnan, B. E. Van Kuiken, A. Vazquez-Mayagoitia,
        L. Jensen, M. Swart, Q. Wu, T. Van Voorhis, A. A. Auer, M. Nooijen,
      L. D. Crosby, E. Brown, G. Cisneros, G. I. Fann, H. Fruchtl, J. Garza,
        K. Hirao, R. A. Kendall, J. A. Nichols, K. Tsemekhman, K. Wolinski,
     J. Anchell, D. E. Bernholdt, P. Borowski, T. Clark, D. Clerc, H. Dachsel,
   M. J. O. Deegan, K. Dyall, D. Elwood, E. Glendening, M. Gutowski, A. C. Hess,
         J. Jaffe, B. G. Johnson, J. Ju, R. Kobayashi, R. Kutteh, Z. Lin,
   R. Littlefield, X. Long, B. Meng, T. Nakajima, S. Niu, L. Pollack, M. Rosing,
   K. Glaesemann, G. Sandrone, M. Stave, H. Taylor, G. Thomas, J. H. van Lenthe,
                               A. T. Wong, Z. Zhang.

 Total times  cpu:        0.0s     wall:        0.1s
